/*--------------------------------*- C++ -*----------------------------------*\
| =========                 |                                                 |
| \\      /  F ield         | OpenFOAM: The Open Source CFD Toolbox           |
|  \\    /   O peration     | Version:  2306                                  |
|   \\  /    A nd           | Website:  www.openfoam.com                      |
|    \\/     M anipulation  |                                                 |
\*---------------------------------------------------------------------------*/
FoamFile
{
    version     2.0;
    format      ascii;
    arch        "LSB;label=32;scalar=64";
    class       volVectorField;
    location    "20000";
    object      U;
}
// * * * * * * * * * * * * * * * * * * * * * * * * * * * * * * * * * * * * * //

dimensions      [0 1 -1 0 0 0 0];

internalField   nonuniform List<vector> 
14751
(
(0.0011234269257 7.55946646563e-08 -0.0011233200187)
(0.00111890316822 -4.19645247217e-08 -0.00111896251502)
(0.00111956689718 7.66899730604e-08 -0.00111945844118)
(0.00111369968811 6.92033385932e-08 -0.00111360181981)
(0.00110931758665 1.11976015655e-07 -0.00110915922865)
(0.00110133943945 1.39172049566e-07 -0.00110114262045)
(0.00109208973062 1.58108369167e-07 -0.00109186613162)
(0.00108141611209 1.83332282265e-07 -0.00108115684109)
(0.00106903238471 2.0009707694e-07 -0.00106874940471)
(0.00105548006415 2.14221534894e-07 -0.00105517710915)
(0.00104084928928 2.23181284919e-07 -0.00104053366328)
(0.0010253192113 2.30334377117e-07 -0.0010249934693)
(0.00100900118279 2.33157147388e-07 -0.00100867144879)
(0.000992263262276 2.32162955253e-07 -0.000991934934276)
(0.000975205928214 2.29449786534e-07 -0.000974881437214)
(0.00095805253477 2.20888137627e-07 -0.00095774015177)
(0.000940977253572 2.12793886303e-07 -0.000940676317572)
(0.000924025588595 1.995193707e-07 -0.000923743425595)
(0.00090742103994 1.87141466495e-07 -0.00090715638194)
(0.000891203737016 1.72411725136e-07 -0.000890959910016)
(0.000875552620516 1.58390504772e-07 -0.000875328622516)
(0.000860445964737 1.44353020952e-07 -0.000860241818737)
(0.000845969332494 1.31303365305e-07 -0.000845783641494)
(0.000832178946829 1.18752927046e-07 -0.000832011004829)
(0.000819152980487 1.07254663677e-07 -0.000819001299487)
(0.000806841390995 9.60378288072e-08 -0.000806705572995)
(0.00079528032869 8.62267222182e-08 -0.00079515838569)
(0.000784461835006 7.65662293737e-08 -0.000784353554006)
(0.000774386641692 6.80912010477e-08 -0.000774290346192)
(0.000765096666505 6.0082297512e-08 -0.000765011697305)
(0.000756577976409 5.28352308223e-08 -0.000756503256109)
(0.000748823322087 4.60979174111e-08 -0.000748758129787)
(0.000741811587986 4.00084552329e-08 -0.000741755007486)
(0.000735535543787 3.43416307778e-08 -0.000735486977387)
(0.000730002291408 2.91410725342e-08 -0.000729961079708)
(0.000725162098575 2.40747231577e-08 -0.000725128051775)
(0.000720987056216 1.96731955769e-08 -0.000720959234116)
(0.000717505184302 1.55627131471e-08 -0.000717483175302)
(0.000714695227781 1.1684091031e-08 -0.000714678703981)
(0.000712521437863 7.48090690224e-09 -0.000712510858263)
(0.000710941948146 3.74512742694e-09 -0.000710936651736)
(0.000709999792302 1.33555500403e-09 -0.000709997903542)
(0.000709658253482 -1.6732762738e-09 -0.000709660619852)
(0.000709918447936 -3.70275051755e-09 -0.000709923684416)
(0.000710765176173 -6.24819350846e-09 -0.000710774012453)
(0.000712121291283 -8.41181297967e-09 -0.000712133187383)
(0.000713993479153 -1.07383357111e-08 -0.000714008665453)
(0.000716367833738 -1.28938800229e-08 -0.000716386068438)
(0.000719258316623 -1.51337821737e-08 -0.000719279719023)
(0.000722644016905 -1.70305254035e-08 -0.000722668101705)
(0.00072650358793 -1.87728365124e-08 -0.00072653013673)
(0.000730837041099 -2.03445934656e-08 -0.000730865812699)
(0.000735630135575 -2.18853791418e-08 -0.000735661086175)
(0.00074084755917 -2.33341702258e-08 -0.00074088055867)
(0.000746475134299 -2.47411005883e-08 -0.000746510123499)
(0.000752498932224 -2.58043770552e-08 -0.000752535425124)
(0.000758890334226 -2.69969833523e-08 -0.000758928513726)
(0.000765642581837 -2.78768363201e-08 -0.000765682005637)
(0.000772706003231 -2.86905040933e-08 -0.000772746577731)
(0.000780102321712 -2.87165963335e-08 -0.000780142933112)
(0.00078783051213 -2.94048940743e-08 -0.00078787209693)
(0.000795821064958 -2.90567146952e-08 -0.000795862157358)
(0.00080408651608 -2.99436387309e-08 -0.00080412886278)
(0.000812542856883 -3.08717870919e-08 -0.000812586516183)
(0.00082114831746 -3.09127285745e-08 -0.00082119203466)
(0.000829944674118 -3.09858434157e-08 -0.000829988494718)
(0.000838903599385 -3.11522256413e-08 -0.000838947655285)
(0.000847982580706 -3.15337097497e-08 -0.000848027176106)
(0.00085714665669 -3.15731663081e-08 -0.00085719130789)
(0.000866430788027 -3.18287146988e-08 -0.000866475800627)
(0.00087579275296 -3.20109361163e-08 -0.00087583802326)
(0.000885218038053 -3.26449280564e-08 -0.000885264204953)
(0.000894714055974 -3.3247595166e-08 -0.000894761075174)
(0.000904252240403 -3.42178163804e-08 -0.000904300631703)
(0.000913832531538 -3.56401616708e-08 -0.000913882934338)
(0.000923469043315 -3.75545118595e-08 -0.000923522153415)
(0.000933133818514 -3.9498348401e-08 -0.000933189677614)
(0.000942854120955 -4.2914805525e-08 -0.000942914811655)
(0.00095259635505 -4.53152209151e-08 -0.00095266044045)
(0.000962420925159 -5.12749289989e-08 -0.000962493438859)
(0.00097230392791 -5.45984015812e-08 -0.00097238114171)
(0.000982198269946 -6.18857026467e-08 -0.000982285789546)
(0.000992213772836 -6.78256824514e-08 -0.000992309692836)
(0.00100223510599 -7.55204184443e-08 -0.00100234190799)
(0.00101230614312 -8.29231193365e-08 -0.00101242341412)
(0.00102241917266 -9.09395889148e-08 -0.00102254778066)
(0.00103252602913 -9.76860947141e-08 -0.00103266417813)
(0.00104257564806 -1.05378709387e-07 -0.00104272467606)
(0.00105251378591 -1.107293864e-07 -0.00105267038091)
(0.00106232307303 -1.18302500026e-07 -0.00106249037803)
(0.00107184634237 -1.20365837614e-07 -0.00107201656537)
(0.00108091730187 -1.22091885267e-07 -0.00108108996587)
(0.0010897191673 -1.24374425956e-07 -0.0010898950593)
(0.00109759732777 -1.12973036217e-07 -0.00109775709577)
(0.00110476517554 -1.16105519257e-07 -0.00110492937354)
(0.001111132898 -1.00786050843e-07 -0.001111275431)
(0.00111531904601 -8.0678762413e-08 -0.00111543314301)
(0.0011169822158 -2.86014793495e-08 -0.0011170226644)
(0.00112278562146 -1.31346498819e-07 -0.00112297137346)
(0.00333628987421 4.36388121582e-07 -0.00333567272821)
(0.00332272424116 3.1685879129e-08 -0.00332267943056)
(0.00332150219265 4.73448295091e-07 -0.00332083263565)
(0.00330657838839 5.68001906764e-07 -0.00330577511239)
(0.00329482931433 7.72302026412e-07 -0.00329373711433)
(0.00327505509023 9.87326127503e-07 -0.00327365880023)
(0.00325182282859 1.11194662662e-06 -0.00325025029859)
(0.00322494245275 1.26735455499e-06 -0.00322315014275)
(0.00319372587555 1.39044770346e-06 -0.00319175948555)
(0.00315939135958 1.49410955758e-06 -0.00315727836958)
(0.00312220572541 1.57568139586e-06 -0.00311997737541)
(0.00308264108353 1.6428282558e-06 -0.00308031777353)
(0.00304099640985 1.68836593251e-06 -0.00303860869985)
(0.00299814908177 1.71309345665e-06 -0.00299572640177)
(0.00295438115095 1.72589208938e-06 -0.00295194037095)
(0.00291027611707 1.71195501473e-06 -0.00290785504707)
(0.00286628383528 1.69747346785e-06 -0.00286388324528)
(0.00282254363407 1.65948769156e-06 -0.00282019676407)
(0.00277965040599 1.61930281319e-06 -0.00277736036599)
(0.00273770211707 1.56546370287e-06 -0.00273548821707)
(0.00269719239099 1.50605966218e-06 -0.00269506250099)
(0.00265807891633 1.44125332569e-06 -0.00265604067633)
(0.00262058214119 1.37280538927e-06 -0.00261864070119)
(0.00258487149122 1.30031987313e-06 -0.00258303256122)
(0.00255113923523 1.22570596558e-06 -0.00254940582523)
(0.00251929983542 1.14799493032e-06 -0.00251767632542)
(0.00248944849066 1.07181831679e-06 -0.00248793271066)
(0.00246160361916 9.93223398058e-07 -0.00246019898916)
(0.00243576854091 9.16905363165e-07 -0.00243447184091)
(0.00241204031588 8.40127708863e-07 -0.00241085219588)
(0.00239039931585 7.65131963651e-07 -0.00238931725585)
(0.00237083090919 6.91225869988e-07 -0.00236985336819)
(0.00235330734313 6.19161082383e-07 -0.00235243171713)
(0.00233781382753 5.48021190448e-07 -0.00233703880853)
(0.00232434390832 4.78678763951e-07 -0.00232366695432)
(0.00231279129999 4.10823383015e-07 -0.00231221030799)
(0.00230310717206 3.45398328086e-07 -0.00230261870506)
(0.00229533995601 2.80896047506e-07 -0.00229494270901)
(0.00228944772443 2.18022233843e-07 -0.00228913939443)
(0.00228533075387 1.55746632517e-07 -0.00228511049487)
(0.00228289135088 9.59098424798e-08 -0.00228275571388)
(0.00228222998247 4.0593656805e-08 -0.00228217257437)
(0.00228325847495 -1.48983156155e-08 -0.00228327954435)
(0.00228595163128 -6.62001146721e-08 -0.00228604525238)
(0.00229027863217 -1.16896771745e-07 -0.00229044394917)
(0.00229602929514 -1.64231206785e-07 -0.00229626155314)
(0.00230320105524 -2.11830806867e-07 -0.00230350062924)
(0.00231175913563 -2.58877449447e-07 -0.00231212524363)
(0.00232172429302 -3.06016723014e-07 -0.00232215706602)
(0.00233307008213 -3.50647888829e-07 -0.00233356597313)
(0.00234571106015 -3.93605332893e-07 -0.00234626770215)
(0.00235963987351 -4.35288570537e-07 -0.00236025546451)
(0.0023748144183 -4.75241517888e-07 -0.0023754865113)
(0.00239112863402 -5.1345639677e-07 -0.00239185477102)
(0.00240854696731 -5.5021322147e-07 -0.00240932508631)
(0.00242699254893 -5.84221522111e-07 -0.00242781876293)
(0.00244640756535 -6.17241994579e-07 -0.00244728047735)
(0.00246672271687 -6.47279183537e-07 -0.00246763810787)
(0.00248783812206 -6.75586789308e-07 -0.00248879354606)
(0.00250977611512 -7.00579478489e-07 -0.00251076688412)
(0.00253248487157 -7.2554812604e-07 -0.00253351095157)
(0.00255581216641 -7.45771379982e-07 -0.00255686684641)
(0.00257974637309 -7.67691690199e-07 -0.00258083205309)
(0.00260405734637 -7.86783573291e-07 -0.00260517002637)
(0.00262865405235 -8.01788379187e-07 -0.00262978795235)
(0.00265359084459 -8.1583859093e-07 -0.00265474461459)
(0.00267878337527 -8.28220030668e-07 -0.00267995465527)
(0.00270411836231 -8.3913775937e-07 -0.00270530508231)
(0.00272949762575 -8.47439192981e-07 -0.00273069608575)
(0.00275495514094 -8.55075946218e-07 -0.00275616440094)
(0.002780399964 -8.60662089789e-07 -0.002781617124)
(0.00280579510458 -8.66509862869e-07 -0.00280702053458)
(0.00283109955128 -8.70618153268e-07 -0.00283233079128)
(0.00285626252662 -8.74797154345e-07 -0.00285749967662)
(0.00288128363061 -8.79612551525e-07 -0.00288252759061)
(0.00290615624717 -8.84420877637e-07 -0.00290740700717)
(0.00293083172383 -8.88027122221e-07 -0.00293208758383)
(0.00295532073773 -8.95331535271e-07 -0.00295658692773)
(0.00297960763067 -8.98478160447e-07 -0.00298087827067)
(0.00300374544724 -9.12450590443e-07 -0.00300503584724)
(0.00302775788853 -9.13730453717e-07 -0.00302905009853)
(0.00305147136604 -9.2780894973e-07 -0.00305278348604)
(0.00307514756714 -9.34604245898e-07 -0.00307646929714)
(0.00309849579413 -9.45224989751e-07 -0.00309983254413)
(0.00312166137835 -9.54141606262e-07 -0.00312301073835)
(0.00314455843199 -9.62817806467e-07 -0.00314592006199)
(0.00316708534404 -9.64953268946e-07 -0.00316844999404)
(0.00318909498314 -9.68623153141e-07 -0.00319046482314)
(0.0032104824772 -9.62138983957e-07 -0.0032118431472)
(0.00323112536414 -9.58688302865e-07 -0.00323248115414)
(0.00325067742344 -9.27900873612e-07 -0.00325198967344)
(0.00326877389777 -8.95621449051e-07 -0.00327004049777)
(0.00328565797343 -8.57932657614e-07 -0.00328687127343)
(0.00330017579104 -7.66638101095e-07 -0.00330125998104)
(0.00331258249471 -7.20909505555e-07 -0.00331360201471)
(0.00332272794593 -5.63074786713e-07 -0.00332352425393)
(0.00332767903761 -3.71173784474e-07 -0.00332820395661)
(0.00332899835034 -2.35383826642e-07 -0.00332933123334)
(0.00333743227171 -5.28017846715e-07 -0.00333817900171)
(0.00554722824454 1.1254170108e-06 -0.00554563666454)
(0.00552428309567 4.36076287492e-07 -0.00552366639067)
(0.00551972755474 1.28356851348e-06 -0.00551791231474)
(0.0054997538072 1.57642385798e-06 -0.0054975244072)
(0.00548458064156 2.03832722065e-06 -0.00548169801156)
(0.00545955855991 2.5817599952e-06 -0.00545590739991)
(0.00542941105439 2.93674881256e-06 -0.00542525786439)
(0.00539419360684 3.3517568535e-06 -0.00538945350684)
(0.00535278040029 3.70463849265e-06 -0.00534754125029)
(0.0053067281236 4.0068842152e-06 -0.0053010615336)
(0.00525641801942 4.25765256408e-06 -0.00525039678942)
(0.0052025485174 4.46467221641e-06 -0.0051962345174)
(0.00514556763089 4.62152971368e-06 -0.00513903180089)
(0.005086632795 4.72508550179e-06 -0.005079950515)
(0.00502622861128 4.79066965574e-06 -0.00501945358128)
(0.00496512105825 4.79153939708e-06 -0.00495834479825)
(0.00490402442342 4.7778498098e-06 -0.00489726752342)
(0.00484313422597 4.70610675578e-06 -0.00483647878597)
(0.00478333544009 4.61785275842e-06 -0.00477680481009)
(0.0047248128657 4.49443434083e-06 -0.0047184567757)
(0.00466824709422 4.34835315091e-06 -0.00466209759422)
(0.00461364155066 4.1844528701e-06 -0.00460772384066)
(0.00456133041521 4.00533565135e-06 -0.00455566601521)
(0.00451155548417 3.8129531094e-06 -0.00450616315417)
(0.00446459341419 3.60855682323e-06 -0.00445949014419)
(0.00442039554279 3.39332766117e-06 -0.00441559665279)
(0.00437911054132 3.17751867155e-06 -0.00437461685132)
(0.00434077462621 2.95234758815e-06 -0.00433659937621)
(0.00430543188778 2.73016756643e-06 -0.00430157084778)
(0.00427320485025 2.50425402091e-06 -0.00426966330025)
(0.00424409762363 2.28041936933e-06 -0.00424087262363)
(0.00421809550578 2.05787165208e-06 -0.00421518523578)
(0.00419517132742 1.8381877173e-06 -0.00419257173742)
(0.0041753168875 1.61976950366e-06 -0.0041730261875)
(0.00415852696494 1.40523330625e-06 -0.00415653966494)
(0.00414468094158 1.19399929751e-06 -0.00414299237158)
(0.00413368155249 9.88514066895e-07 -0.00413228358249)
(0.00412561802154 7.84959237795e-07 -0.00412450792154)
(0.00412042855063 5.85939084483e-07 -0.00411959990763)
(0.00411797723795 3.89259454616e-07 -0.00411742674195)
(0.00411815432344 1.99696147395e-07 -0.00411787191044)
(0.00412103858987 1.86648613069e-08 -0.00412101219377)
(0.00412652640567 -1.60391616963e-07 -0.00412675323367)
(0.00413456760792 -3.28414330309e-07 -0.00413503205592)
(0.00414508643141 -4.92551491891e-07 -0.00414578300441)
(0.00415781874406 -6.46342267052e-07 -0.00415873281006)
(0.00417267330655 -7.98818530706e-07 -0.00417380300655)
(0.00418961487604 -9.49821183829e-07 -0.00419095812604)
(0.00420864229054 -1.10099354258e-06 -0.00421019933054)
(0.00422974600291 -1.24583729564e-06 -0.00423150788291)
(0.00425279094786 -1.3853636057e-06 -0.00425475014786)
(0.00427774134004 -1.5201805846e-06 -0.00427989120004)
(0.00430452015273 -1.6492205011e-06 -0.00430685250273)
(0.00433294384315 -1.77205202006e-06 -0.00433544990315)
(0.00436294127062 -1.88928325331e-06 -0.00436561312062)
(0.00439437995986 -1.99826255043e-06 -0.00439720592986)
(0.00442713743271 -2.1022001762e-06 -0.00443011039271)
(0.00446109613102 -2.19734846467e-06 -0.00446420365102)
(0.00449608449416 -2.28633078202e-06 -0.00449931785416)
(0.00453208368893 -2.36578129995e-06 -0.00453542940893)
(0.00456900401752 -2.44255188318e-06 -0.00457245830752)
(0.00460658389435 -2.50658040222e-06 -0.00461012873435)
(0.00464474468874 -2.56906742847e-06 -0.00464837789874)
(0.0046832015169 -2.62289946773e-06 -0.0046869108569)
(0.00472177247609 -2.6653258746e-06 -0.00472554181609)
(0.00476048079056 -2.70350256971e-06 -0.00476430412056)
(0.0047991585047 -2.73495467934e-06 -0.0048030263147)
(0.00483764214893 -2.7608630718e-06 -0.00484154659893)
(0.00487576410264 -2.77827911182e-06 -0.00487969318264)
(0.00491351385976 -2.79206062299e-06 -0.00491746242976)
(0.00495075920499 -2.79918825934e-06 -0.00495471785499)
(0.00498740482946 -2.8044491338e-06 -0.00499137091946)
(0.00502338267749 -2.80408850934e-06 -0.00502734825749)
(0.00505859796519 -2.80215103676e-06 -0.00506256080519)
(0.00509303577043 -2.79973980263e-06 -0.00509699520043)
(0.00512667601501 -2.79524967457e-06 -0.00513062909501)
(0.00515942826505 -2.78657347437e-06 -0.00516336907505)
(0.00519127849448 -2.78354705734e-06 -0.00519521502448)
(0.00522223648329 -2.77233941486e-06 -0.00522615716329)
(0.0052523257729 -2.77965797005e-06 -0.0052562568029)
(0.00528160601257 -2.76114591452e-06 -0.00528551086257)
(0.00530982422921 -2.76456124027e-06 -0.00531373390921)
(0.00533732557586 -2.75178382073e-06 -0.00534121718586)
(0.00536375621127 -2.74322075761e-06 -0.00536763571127)
(0.00538930084214 -2.72765733736e-06 -0.00539315833214)
(0.00541383127924 -2.70638049431e-06 -0.00541765867924)
(0.00543722875336 -2.66735527106e-06 -0.00544100096336)
(0.0054592844596 -2.62587638728e-06 -0.0054629980096)
(0.00547990220586 -2.55797999415e-06 -0.00548351973586)
(0.00549886109619 -2.48606016343e-06 -0.00550237691619)
(0.00551577061545 -2.35238869752e-06 -0.00551909739545)
(0.00553012350709 -2.20433467967e-06 -0.00553324090709)
(0.00554224140916 -2.03703321524e-06 -0.00554512220916)
(0.00555103942369 -1.76476174915e-06 -0.00555353517369)
(0.00555667782338 -1.56086043772e-06 -0.00555888521338)
(0.00555932446683 -1.12794138201e-06 -0.00556091961683)
(0.00555590541745 -6.7320737499e-07 -0.00555685747645)
(0.00555060308733 -4.11834545712e-07 -0.00555118550933)
(0.00555329256395 -8.28340238821e-07 -0.00555446401395)
(0.00769075806998 2.17436749428e-06 -0.00768768304998)
(0.00765820014779 1.43051237368e-06 -0.00765617709779)
(0.00764865467243 2.73117165806e-06 -0.00764479221243)
(0.00762522545823 3.39725917487e-06 -0.00762042100823)
(0.00760806105302 4.22312453996e-06 -0.00760208865302)
(0.0075810432322 5.21415590699e-06 -0.0075736693022)
(0.00754782473373 5.93610485952e-06 -0.00753942981373)
(0.00750892543034 6.72418243822e-06 -0.00749941600034)
(0.00746281852846 7.41917648024e-06 -0.00745232622846)
(0.00741112750869 8.01703526374e-06 -0.00739978970869)
(0.00735435028077 8.5219095055e-06 -0.00734229848077)
(0.00729333702284 8.93613265792e-06 -0.00728069942284)
(0.00722865332033 9.25956329964e-06 -0.00721555832033)
(0.00716156351544 9.48025132605e-06 -0.00714815641544)
(0.00709271990427 9.62068273279e-06 -0.00707911420427)
(0.00702302434671 9.64627999827e-06 -0.00700938244671)
(0.00695331715236 9.62542034822e-06 -0.00693970475236)
(0.00688384838499 9.50174737219e-06 -0.00687041088499)
(0.00681569804157 9.33260743013e-06 -0.00680249974157)
(0.00674909950948 9.09806011081e-06 -0.00673623290948)
(0.00668482676404 8.81267181393e-06 -0.00667236376404)
(0.00662295941592 8.48902904018e-06 -0.00661095411592)
(0.00656388185279 8.13073803415e-06 -0.00655238325279)
(0.0065078745463 7.74444559959e-06 -0.0064969222463)
(0.00645525514449 7.32937391903e-06 -0.00644488984449)
(0.0064060212363 6.89211322768e-06 -0.0063962743163)
(0.00636036743449 6.44788753454e-06 -0.00635124874449)
(0.00631834824367 5.98377799871e-06 -0.00630988590367)
(0.00628002877632 5.52186756496e-06 -0.00627221967632)
(0.00624553536272 5.05081424054e-06 -0.00623839243272)
(0.00621489657608 4.58102663726e-06 -0.00620841802608)
(0.00618809830426 4.11254718152e-06 -0.00618228228426)
(0.00616513513619 3.64772346784e-06 -0.00615997647619)
(0.00614597051654 3.18485843994e-06 -0.00614146644654)
(0.00613060767531 2.72852000763e-06 -0.00612674896531)
(0.00611892564933 2.27764043968e-06 -0.00611570457933)
(0.00611082972367 1.83827257012e-06 -0.00610823001367)
(0.00610637795293 1.40251801621e-06 -0.00610439449293)
(0.00610550297644 9.75114393392e-07 -0.00610412395644)
(0.00610808916511 5.5253748146e-07 -0.00610730775911)
(0.00611399530601 1.45082048044e-07 -0.00611379012901)
(0.00612328458276 -2.47896788242e-07 -0.00612363516176)
(0.00613580313893 -6.33984868944e-07 -0.00613669972893)
(0.00615150515398 -9.97982226695e-07 -0.00615291651398)
(0.00617028303747 -1.35204473417e-06 -0.00617219511747)
(0.00619181333419 -1.68360710387e-06 -0.00619419431419)
(0.00621596564601 -2.00708017199e-06 -0.00621880408601)
(0.00624258885049 -2.32618332021e-06 -0.00624587857049)
(0.00627169300477 -2.64669361091e-06 -0.00627543599477)
(0.00630330789706 -2.95648416282e-06 -0.00630748899706)
(0.00633725787066 -3.25397105673e-06 -0.00634185968066)
(0.00637345781776 -3.53951491711e-06 -0.00637846344776)
(0.00641178109413 -3.81221771834e-06 -0.00641717238413)
(0.0064520027606 -4.07019148532e-06 -0.0064577588806)
(0.00649400189903 -4.31444030968e-06 -0.00650010343903)
(0.00653758341952 -4.54086297208e-06 -0.00654400516952)
(0.00658256043429 -4.75375868176e-06 -0.00658928326429)
(0.0066287737338 -4.94828375727e-06 -0.0066357716638)
(0.00667599460887 -5.12788180862e-06 -0.00668324652887)
(0.00672413537062 -5.28656364139e-06 -0.00673161170062)
(0.00677302453948 -5.43683797453e-06 -0.00678071338949)
(0.00682236335849 -5.56121098627e-06 -0.00683022809849)
(0.00687199133521 -5.67665323937e-06 -0.00688001933521)
(0.00692157525838 -5.77439660973e-06 -0.00692974148838)
(0.00697089324384 -5.84823269982e-06 -0.00697916389384)
(0.00701986548092 -5.91103085306e-06 -0.00702822494092)
(0.00706826892043 -5.9582302307e-06 -0.00707669513043)
(0.00711590324748 -5.99311887929e-06 -0.00712437879748)
(0.00716256069004 -6.00953082768e-06 -0.00717105945004)
(0.00720816401742 -6.0166867483e-06 -0.00721667289742)
(0.00725250430761 -6.01004701563e-06 -0.00726100379761)
(0.0072955057349 -5.99684533202e-06 -0.0073039865549)
(0.00733695956728 -5.97227337138e-06 -0.00734540563728)
(0.00737686126474 -5.94275166326e-06 -0.00738526558474)
(0.00741506803592 -5.91021768026e-06 -0.00742342634592)
(0.00745158158583 -5.87226018825e-06 -0.00745988621583)
(0.00748633342879 -5.82573256204e-06 -0.00749457225879)
(0.00751924279411 -5.78486179009e-06 -0.00752742382411)
(0.00755032152181 -5.73290358381e-06 -0.00755842907181)
(0.00757954518187 -5.70440718053e-06 -0.00758761243187)
(0.00760702712498 -5.63907051395e-06 -0.00761500197498)
(0.0076325108341 -5.59966345303e-06 -0.0076404299541)
(0.00765631507195 -5.53538744662e-06 -0.00766414329195)
(0.00767813889081 -5.47184683126e-06 -0.00768587725081)
(0.00769813528204 -5.39267915604e-06 -0.00770576168204)
(0.00771616296428 -5.29768643106e-06 -0.00772365502428)
(0.00773209251618 -5.16989809356e-06 -0.00773940385618)
(0.0077456978657 -5.02902828061e-06 -0.0077528099857)
(0.00775693343217 -4.83953780539e-06 -0.00776377757217)
(0.00776556768354 -4.628862411e-06 -0.00777211388354)
(0.0077710905944 -4.31828697057e-06 -0.0077771975744)
(0.00777310660635 -3.96721552478e-06 -0.00777871709635)
(0.00777196988279 -3.57478540336e-06 -0.00777702539279)
(0.00776698548125 -3.02379365732e-06 -0.00777126177125)
(0.0077581386281 -2.53513337405e-06 -0.0077617238481)
(0.0077464111151 -1.72034130115e-06 -0.0077488440451)
(0.0077292387749 -9.05697720683e-07 -0.0077305196249)
(0.00771261803165 -4.109782394e-07 -0.00771319924265)
(0.00770438712052 -7.51244386468e-07 -0.00770544954052)
(0.00962984716085 3.66045846096e-06 -0.00962467049085)
(0.00958826183051 3.14992029388e-06 -0.00958380717051)
(0.00957170374463 4.9332506671e-06 -0.00956472707463)
(0.00954383862931 6.12602666988e-06 -0.00953517511931)
(0.00952296128545 7.40100383597e-06 -0.00951249468545)
(0.00949291723708 8.9123031594e-06 -0.00948031333708)
(0.00945635723835 1.01086571225e-05 -0.00944206143835)
(0.00941395530334 1.13432655624e-05 -0.00939791350334)
(0.00936404004713 1.24524332594e-05 -0.00934642964713)
(0.00930821726532 1.34070981247e-05 -0.00928925676532)
(0.00924706099332 1.42190688415e-05 -0.00922695219332)
(0.00918155543063 1.48802136819e-05 -0.00916051163063)
(0.00911234252336 1.53983815312e-05 -0.00909056592336)
(0.00904067861372 1.57503085762e-05 -0.00901840431372)
(0.00896736326915 1.59667539619e-05 -0.00894478286915)
(0.00889321871781 1.60105238717e-05 -0.00887057641781)
(0.00881936041985 1.59591172087e-05 -0.00879679081985)
(0.00874595960732 1.57546926382e-05 -0.00872367910732)
(0.00867426501174 1.5463223223e-05 -0.00865239671174)
(0.00860447846515 1.50701425634e-05 -0.00858316606515)
(0.00853731717433 1.45897342162e-05 -0.00851668417433)
(0.00847307938199 1.40437770705e-05 -0.00845321848199)
(0.00841205188084 1.34378572697e-05 -0.00839304788084)
(0.00835459677428 1.27840663398e-05 -0.00833651737428)
(0.00830092494433 1.20806365139e-05 -0.00828384034433)
(0.00825111645168 1.13407906887e-05 -0.00823507815168)
(0.00820539687836 1.05835500367e-05 -0.00819042947836)
(0.00816382678506 9.79456029028e-06 -0.00814997518506)
(0.00812649878243 9.00479272638e-06 -0.00811376408243)
(0.00809347323118 8.19961023464e-06 -0.00808187723118)
(0.00806483144196 7.39400347883e-06 -0.00805437474196)
(0.00804050395412 6.58974022591e-06 -0.00803118465412)
(0.00802056407831 5.79049743114e-06 -0.00801237507831)
(0.00800486986319 4.99552556132e-06 -0.00799780512319)
(0.00799342476876 4.20971779539e-06 -0.00798747132876)
(0.00798615659934 3.4309740262e-06 -0.00798130446934)
(0.00798300226425 2.6700705611e-06 -0.00797922621425)
(0.00798395412849 1.91620987954e-06 -0.00798124419849)
(0.00798894671139 1.17678831845e-06 -0.00798728248139)
(0.00799783536008 4.47235846712e-07 -0.00799720287308)
(0.00801056025888 -2.57039678922e-07 -0.00801092376788)
(0.00802704854613 -9.39080231823e-07 -0.00802837660613)
(0.00804722470914 -1.60567686551e-06 -0.00804949547914)
(0.00807089080538 -2.23676259666e-06 -0.00807405406538)
(0.00809796452917 -2.8487352315e-06 -0.00810199324917)
(0.0081281772828 -3.42144929786e-06 -0.0081330159428)
(0.0081613765549 -3.97058842413e-06 -0.0081669918149)
(0.0081972009521 -4.50724004464e-06 -0.0082035751521)
(0.00823570961006 -5.04777368138e-06 -0.00824284824006)
(0.00827684478812 -5.57384698445e-06 -0.00828472739812)
(0.00832054193059 -6.07675546936e-06 -0.00832913576059)
(0.00836658898543 -6.55638599904e-06 -0.00837586111543)
(0.0084148446513 -7.01256886786e-06 -0.0084247619213)
(0.00846509952116 -7.44145034385e-06 -0.00847562332116)
(0.00851706986229 -7.84428907709e-06 -0.00852816336229)
(0.00857061793833 -8.21587369061e-06 -0.00858223693833)
(0.00862552821727 -8.5610125105e-06 -0.00863763531727)
(0.00868152140637 -8.87468507864e-06 -0.00869407210637)
(0.00873838287361 -9.16042692892e-06 -0.00875133767361)
(0.00879590643696 -9.40982349064e-06 -0.00880921393696)
(0.00885393792505 -9.64090598673e-06 -0.00886757222505)
(0.0089121406845 -9.82977420799e-06 -0.0089260420845)
(0.00897021677259 -9.9977827792e-06 -0.00898435577259)
(0.00902788964661 -1.01360221549e-05 -0.00904222414661)
(0.00908495392453 -1.02349463936e-05 -0.00909942832453)
(0.00914111416364 -1.03123745861e-05 -0.00915569806364)
(0.00919623304257 -1.03625084569e-05 -0.00921088784257)
(0.00925009437929 -1.03910755709e-05 -0.00926478957929)
(0.00930228055975 -1.03886714078e-05 -0.00931697235975)
(0.00935278193392 -1.03689431286e-05 -0.00936744583392)
(0.00940139026979 -1.03263753004e-05 -0.00941599396979)
(0.00944795769599 -1.02700896006e-05 -0.00946248179599)
(0.00949227548049 -1.01952777032e-05 -0.00950669378049)
(0.00953419640194 -1.01101420467e-05 -0.00954849430194)
(0.00957371811033 -1.00180060331e-05 -0.00958788571033)
(0.00961070008431 -9.91759687021e-06 -0.00962472568431)
(0.00964514502387 -9.80509618132e-06 -0.00965901152387)
(0.00967689985767 -9.69697955448e-06 -0.00969061345767)
(0.00970604809638 -9.57514505608e-06 -0.00971958939638)
(0.00973242286864 -9.47558442129e-06 -0.00974582336864)
(0.00975621244581 -9.33204174471e-06 -0.00976940994581)
(0.00977708723518 -9.21063151038e-06 -0.00979011303518)
(0.00979536872945 -9.05669436412e-06 -0.00980817682945)
(0.00981075658593 -8.89497904326e-06 -0.00982333598593)
(0.00982340617595 -8.70575726861e-06 -0.00983571797595)
(0.00983317802818 -8.48627132373e-06 -0.00984517942818)
(0.00983994512124 -8.21615653332e-06 -0.00985156452124)
(0.00984341071243 -7.91507046589e-06 -0.00985460431243)
(0.00984353489108 -7.53945534372e-06 -0.00985419729108)
(0.00984001541446 -7.11674690993e-06 -0.00985008001446)
(0.00983256175419 -6.55781435474e-06 -0.00984183590419)
(0.0098207077012 -5.92197686603e-06 -0.0098290826412)
(0.00980480188887 -5.21619237452e-06 -0.00981217869887)
(0.00978458766883 -4.30341651496e-06 -0.00979067361883)
(0.00976032058513 -3.42225539959e-06 -0.00976516038513)
(0.00973335223795 -2.16125773456e-06 -0.00973640871795)
(0.00970221089076 -9.01773278047e-07 -0.00970348619076)
(0.00967333762084 -3.47431967189e-08 -0.00967338675514)
(0.00965279281533 -8.94857773727e-08 -0.00965291936733)
(0.011258159808 5.6422878498e-06 -0.011250180408)
(0.0112079899922 5.5914539433e-06 -0.0112000824822)
(0.0111825959082 7.87879588801e-06 -0.0111714536082)
(0.0111481053051 9.70171716991e-06 -0.0111343850051)
(0.0111202311557 1.14817170702e-05 -0.0111039935557)
(0.0110840012142 1.35448425257e-05 -0.0110648459142)
(0.0110412416724 1.52737186057e-05 -0.0110196413724)
(0.0109928132764 1.69856241229e-05 -0.0109687919764)
(0.0109370591912 1.85374406649e-05 -0.0109108432912)
(0.0108757055338 1.98702662368e-05 -0.0108476047338)
(0.0108092604789 2.10027684575e-05 -0.0107795580789)
(0.0107387694867 2.1913451281e-05 -0.0107077791867)
(0.0106648825533 2.26215480117e-05 -0.0106328908533)
(0.0105889908923 2.30945317376e-05 -0.0105563302923)
(0.0105118275604 2.33691013008e-05 -0.0104787786604)
(0.0104342861965 2.34090528339e-05 -0.0104011807965)
(0.0103572706288 2.3292592347e-05 -0.0103243299288)
(0.0102813113925 2.29700102335e-05 -0.0102488268925)
(0.0102074473872 2.2510532247e-05 -0.0101756126872)
(0.0101359584057 2.19098450364e-05 -0.0101049732057)
(0.0100677026761 2.11816664732e-05 -0.0100377472761)
(0.010002772609 2.03566849915e-05 -0.00997398390901)
(0.00994152740786 1.94428908982e-05 -0.00991403100786)
(0.00988426291536 1.84586689695e-05 -0.00985815841536)
(0.00983126112423 1.74028171238e-05 -0.00980664982423)
(0.00978260679515 1.62952050618e-05 -0.00975956189515)
(0.00973852751014 1.51576823829e-05 -0.00971709131014)
(0.00969894340853 1.3977309033e-05 -0.00967917650853)
(0.00966409317236 1.27916323823e-05 -0.00964600307236)
(0.00963389544094 1.15855910564e-05 -0.00961751094094)