/*--------------------------------*- C++ -*----------------------------------*\
| =========                 |                                                 |
| \\      /  F ield         | OpenFOAM: The Open Source CFD Toolbox           |
|  \\    /   O peration     | Version:  2306                                  |
|   \\  /    A nd           | Website:  www.openfoam.com                      |
|    \\/     M anipulation  |                                                 |
\*---------------------------------------------------------------------------*/
FoamFile
{
    version     2.0;
    format      ascii;
    arch        "LSB;label=32;scalar=64";
    class       volScalarField;
    location    "20000";
    object      k;
}
// * * * * * * * * * * * * * * * * * * * * * * * * * * * * * * * * * * * * * //

dimensions      [0 2 -2 0 0 0 0];

internalField   nonuniform List<scalar> 
14751
(
7.44073e-08
7.38061e-08
7.38644e-08
7.31025e-08
7.25265e-08
7.1504e-08
7.03292e-08
6.89863e-08
6.74484e-08
6.57855e-08
6.40157e-08
6.21652e-08
6.02508e-08
5.83197e-08
5.63843e-08
5.44729e-08
5.26038e-08
5.07817e-08
4.90289e-08
4.73476e-08
4.57545e-08
4.42438e-08
4.28204e-08
4.14877e-08
4.02493e-08
3.90971e-08
3.80312e-08
3.70486e-08
3.61463e-08
3.53251e-08
3.45815e-08
3.39123e-08
3.33147e-08
3.27857e-08
3.23239e-08
3.19242e-08
3.1583e-08
3.13015e-08
3.10775e-08
3.09071e-08
3.07861e-08
3.07182e-08
3.07003e-08
3.07319e-08
3.08121e-08
3.09345e-08
3.10991e-08
3.13058e-08
3.15556e-08
3.18484e-08
3.21818e-08
3.25571e-08
3.29738e-08
3.34292e-08
3.39236e-08
3.44554e-08
3.50238e-08
3.56283e-08
3.62659e-08
3.69393e-08
3.76484e-08
3.83886e-08
3.91615e-08
3.99589e-08
4.07788e-08
4.16245e-08
4.2494e-08
4.33843e-08
4.42922e-08
4.52203e-08
4.61656e-08
4.71275e-08
4.81054e-08
4.90974e-08
5.01045e-08
5.11265e-08
5.21616e-08
5.32118e-08
5.42754e-08
5.53571e-08
5.6456e-08
5.75668e-08
5.87009e-08
5.98455e-08
6.10073e-08
6.21838e-08
6.33704e-08
6.45603e-08
6.57473e-08
6.69286e-08
6.80841e-08
6.91933e-08
7.02751e-08
7.12488e-08
7.21364e-08
7.29258e-08
7.34351e-08
7.36195e-08
7.4343e-08
4.99771e-08
4.93044e-08
4.90827e-08
4.86696e-08
4.83113e-08
4.79031e-08
4.74307e-08
4.69366e-08
4.63956e-08
4.58318e-08
4.52429e-08
4.46417e-08
4.40285e-08
4.34137e-08
4.28077e-08
4.22088e-08
4.16352e-08
4.10746e-08
4.05421e-08
4.00348e-08
3.95636e-08
3.91247e-08
3.87196e-08
3.83485e-08
3.80163e-08
3.77171e-08
3.74497e-08
3.72142e-08
3.70089e-08
3.68348e-08
3.66938e-08
3.65835e-08
3.65027e-08
3.64507e-08
3.64285e-08
3.64326e-08
3.64587e-08
3.65127e-08
3.65905e-08
3.66909e-08
3.68115e-08
3.69551e-08
3.71224e-08
3.73106e-08
3.75198e-08
3.77432e-08
3.79761e-08
3.82152e-08
3.84636e-08
3.87263e-08
3.90026e-08
3.92922e-08
3.95952e-08
3.99091e-08
4.02329e-08
4.05658e-08
4.09063e-08
4.1254e-08
4.16074e-08
4.19675e-08
4.23356e-08
4.27081e-08
4.30831e-08
4.34554e-08
4.38222e-08
4.41868e-08
4.45484e-08
4.49053e-08
4.52552e-08
4.56002e-08
4.59398e-08
4.62732e-08
4.66002e-08
4.69195e-08
4.72316e-08
4.75351e-08
4.78285e-08
4.81087e-08
4.83838e-08
4.86454e-08
4.89011e-08
4.91393e-08
4.93695e-08
4.95848e-08
4.9787e-08
4.99776e-08
5.01602e-08
5.03263e-08
5.04778e-08
5.06107e-08
5.07299e-08
5.08174e-08
5.08784e-08
5.09054e-08
5.0856e-08
5.07805e-08
5.05626e-08
5.02077e-08
4.99027e-08
2.89155e-07
2.85274e-07
2.84311e-07
2.83382e-07
2.82981e-07
2.82801e-07
2.82428e-07
2.82105e-07
2.81651e-07
2.81147e-07
2.80545e-07
2.79898e-07
2.79189e-07
2.78428e-07
2.77661e-07
2.76854e-07
2.76109e-07
2.75338e-07
2.74628e-07
2.73958e-07
2.7339e-07
2.72911e-07
2.72526e-07
2.72234e-07
2.72066e-07
2.71999e-07
2.72033e-07
2.72172e-07
2.72412e-07
2.72757e-07
2.73231e-07
2.73822e-07
2.74524e-07
2.7534e-07
2.76283e-07
2.77332e-07
2.78464e-07
2.79725e-07
2.81083e-07
2.82539e-07
2.84088e-07
2.85718e-07
2.87433e-07
2.89234e-07
2.91122e-07
2.93053e-07
2.94985e-07
2.9689e-07
2.98792e-07
3.00736e-07
3.02718e-07
3.04731e-07
3.06775e-07
3.08832e-07
3.10893e-07
3.12949e-07
3.14989e-07
3.17005e-07
3.18986e-07
3.20929e-07
3.22841e-07
3.24692e-07
3.26467e-07
3.28143e-07
3.29692e-07
3.31126e-07
3.32437e-07
3.33616e-07
3.34642e-07
3.35523e-07
3.36257e-07
3.36834e-07
3.37251e-07
3.37498e-07
3.37577e-07
3.37478e-07
3.37188e-07
3.3668e-07
3.36024e-07
3.3515e-07
3.34122e-07
3.32856e-07
3.31425e-07
3.29798e-07
3.2799e-07
3.26024e-07
3.23943e-07
3.21703e-07
3.19341e-07
3.16845e-07
3.14287e-07
3.11553e-07
3.08709e-07
3.05831e-07
3.02636e-07
2.99585e-07
2.9606e-07
2.92337e-07
2.88968e-07
1.00742e-06
9.9621e-07
9.95047e-07
9.95397e-07
9.98654e-07
1.00331e-06
1.00745e-06
1.01191e-06
1.01612e-06
1.02033e-06
1.0243e-06
1.02815e-06
1.03187e-06
1.03539e-06
1.0388e-06
1.04201e-06
1.04528e-06
1.04835e-06
1.05146e-06
1.05455e-06
1.0578e-06
1.06117e-06
1.06469e-06
1.06833e-06
1.07218e-06
1.07619e-06
1.08038e-06
1.08475e-06
1.08931e-06
1.09406e-06
1.09909e-06
1.10435e-06
1.10984e-06
1.11558e-06
1.12161e-06
1.12787e-06
1.13428e-06
1.14102e-06
1.14797e-06
1.15502e-06
1.16213e-06
1.16942e-06
1.17689e-06
1.18454e-06
1.19235e-06
1.20018e-06
1.20788e-06
1.21531e-06
1.22256e-06
1.22982e-06
1.23708e-06
1.24429e-06
1.25146e-06
1.25853e-06
1.26545e-06
1.27218e-06
1.27869e-06
1.28494e-06
1.29087e-06
1.29646e-06
1.30171e-06
1.30654e-06
1.31087e-06
1.31466e-06
1.3178e-06
1.3203e-06
1.32213e-06
1.32326e-06
1.32362e-06
1.32322e-06
1.32205e-06
1.32008e-06
1.3173e-06
1.31366e-06
1.3092e-06
1.30388e-06
1.29765e-06
1.29041e-06
1.28246e-06
1.27353e-06
1.26389e-06
1.25322e-06
1.24185e-06
1.22967e-06
1.21678e-06
1.20326e-06
1.18916e-06
1.17454e-06
1.15957e-06
1.14425e-06
1.12882e-06
1.11303e-06
1.09713e-06
1.08145e-06
1.06542e-06
1.05038e-06
1.03494e-06
1.02029e-06
1.00811e-06
2.19777e-06
2.17939e-06
2.17919e-06
2.18371e-06
2.19509e-06
2.21028e-06
2.22529e-06
2.2416e-06
2.25766e-06
2.273e-06
2.28814e-06
2.30317e-06
2.31831e-06
2.33319e-06
2.3479e-06
2.36229e-06
2.37672e-06
2.39072e-06
2.40468e-06
2.4185e-06
2.43242e-06
2.4464e-06
2.46042e-06
2.47447e-06
2.48863e-06
2.50286e-06
2.51717e-06
2.53156e-06
2.54608e-06
2.56066e-06
2.5755e-06
2.59051e-06
2.60564e-06
2.6209e-06
2.63649e-06
2.65221e-06
2.66788e-06
2.68331e-06
2.69874e-06
2.71421e-06
2.72966e-06
2.74517e-06
2.76074e-06
2.77632e-06
2.79188e-06
2.80723e-06
2.82206e-06
2.836e-06
2.84921e-06
2.86215e-06
2.87479e-06
2.88705e-06
2.89895e-06
2.91036e-06
2.92122e-06
2.93148e-06
2.94104e-06
2.94984e-06
2.9578e-06
2.96485e-06
2.97099e-06
2.97608e-06
2.98004e-06
2.98278e-06
2.98416e-06
2.98416e-06
2.98274e-06
2.97985e-06
2.97539e-06
2.96936e-06
2.96175e-06
2.95252e-06
2.94164e-06
2.92905e-06
2.91479e-06
2.89888e-06
2.88117e-06
2.86127e-06
2.83922e-06
2.8152e-06
2.78968e-06
2.76229e-06
2.73346e-06
2.70313e-06
2.67149e-06
2.63868e-06
2.60489e-06
2.5702e-06
2.53491e-06
2.49909e-06
2.46313e-06
2.42676e-06
2.39045e-06
2.35489e-06
2.31951e-06
2.28646e-06
2.25407e-06
2.22463e-06
2.20154e-06
3.45437e-06
3.43335e-06
3.43383e-06
3.44171e-06
3.45916e-06
3.48229e-06
3.50597e-06
3.53185e-06
3.55796e-06
3.58387e-06
3.60973e-06
3.63542e-06
3.66038e-06
3.68519e-06
3.70984e-06
3.73428e-06
3.75876e-06
3.78275e-06
3.8066e-06
3.83025e-06
3.85391e-06
3.87752e-06
3.90106e-06
3.92449e-06
3.94786e-06
3.97113e-06
3.9943e-06
4.01735e-06
4.04033e-06
4.06313e-06
4.08601e-06
4.10887e-06
4.13156e-06
4.154e-06
4.17598e-06
4.19768e-06
4.21906e-06
4.2401e-06
4.26091e-06
4.28151e-06
4.30183e-06
4.3219e-06
4.3417e-06
4.36116e-06
4.38026e-06
4.39879e-06
4.41643e-06
4.43258e-06
4.44735e-06
4.46146e-06
4.47488e-06
4.48754e-06
4.49943e-06
4.51046e-06
4.52055e-06
4.52964e-06
4.53764e-06
4.54451e-06
4.55016e-06
4.5545e-06
4.55756e-06
4.55921e-06
4.55936e-06
4.55798e-06
4.55491e-06
4.55016e-06
4.54368e-06
4.53543e-06
4.52533e-06
4.51339e-06
4.4996e-06
4.48395e-06
4.46643e-06
4.44685e-06
4.42472e-06
4.39997e-06
4.37313e-06
4.34388e-06
4.31238e-06
4.27869e-06
4.24317e-06
4.20553e-06
4.16615e-06
4.12501e-06
4.08232e-06
4.03825e-06
3.99301e-06
3.94668e-06
3.89962e-06
3.85194e-06
3.80403e-06
3.75568e-06
3.70748e-06
3.66023e-06
3.61362e-06
3.56997e-06
3.52794e-06
3.49028e-06
3.46181e-06
4.47484e-06
4.45522e-06
4.45642e-06
4.46625e-06
4.48645e-06
4.513e-06
4.54091e-06
4.57154e-06
4.60292e-06
4.6346e-06
4.66651e-06
4.69851e-06
4.73024e-06
4.76191e-06
4.79342e-06
4.8244e-06
4.855e-06
4.88516e-06
4.9151e-06
4.94485e-06
4.97453e-06
5.00411e-06
5.03352e-06
5.06273e-06
5.09173e-06
5.12048e-06
5.14896e-06
5.17712e-06
5.20496e-06
5.23235e-06
5.25926e-06
5.28566e-06
5.31158e-06
5.33695e-06
5.36172e-06
5.38595e-06
5.40957e-06
5.4326e-06
5.45509e-06
5.47702e-06
5.49834e-06
5.51904e-06
5.53908e-06
5.55838e-06
5.57691e-06
5.59449e-06
5.61095e-06
5.62618e-06
5.64025e-06
5.65335e-06
5.66543e-06
5.67644e-06
5.68637e-06
5.69513e-06
5.70268e-06
5.70897e-06
5.71392e-06
5.71752e-06
5.71967e-06
5.72034e-06
5.71953e-06
5.71717e-06
5.7132e-06
5.70759e-06
5.70026e-06
5.69119e-06
5.68038e-06
5.6678e-06
5.65339e-06
5.63717e-06
5.61915e-06
5.59933e-06
5.57711e-06
5.55236e-06
5.52532e-06
5.496e-06
5.46469e-06
5.43117e-06
5.39561e-06
5.35801e-06
5.31864e-06
5.2773e-06
5.23428e-06
5.18961e-06
5.14344e-06
5.09595e-06
5.0473e-06
4.99761e-06
4.94718e-06
4.89614e-06
4.84483e-06
4.79312e-06
4.74156e-06
4.69096e-06
4.64122e-06
4.59455e-06
4.55024e-06
4.51198e-06
4.48409e-06
5.23912e-06
5.22181e-06
5.22331e-06
5.23385e-06
5.25452e-06
5.28175e-06
5.31102e-06
5.34336e-06
5.37697e-06
5.4113e-06
5.44621e-06
5.48152e-06
5.51694e-06
5.55249e-06
5.58805e-06
5.62324e-06
5.65816e-06
5.69254e-06
5.72661e-06
5.76031e-06
5.79388e-06
5.82725e-06
5.86035e-06
5.89311e-06
5.92549e-06
5.95745e-06
5.98894e-06
6.0199e-06
6.05029e-06
6.07999e-06
6.10901e-06
6.1373e-06
6.16484e-06
6.19158e-06
6.21749e-06
6.24258e-06
6.26678e-06
6.29011e-06
6.31257e-06
6.33414e-06
6.35476e-06
6.3744e-06
6.39301e-06
6.41052e-06
6.42688e-06
6.44196e-06
6.45566e-06
6.46793e-06
6.47886e-06
6.48855e-06
6.49695e-06
6.50404e-06
6.50982e-06
6.51423e-06
6.51724e-06
6.51885e-06
6.519e-06
6.5177e-06
6.5149e-06
6.51058e-06
6.50476e-06
6.49743e-06
6.48855e-06
6.47812e-06
6.4661e-06
6.45251e-06
6.43735e-06
6.42062e-06
6.40229e-06
6.38236e-06
6.36084e-06
6.33706e-06
6.31127e-06
6.28355e-06
6.25402e-06
6.22273e-06
6.18985e-06
6.15524e-06
6.11903e-06
6.08123e-06
6.04203e-06
6.00129e-06
5.95923e-06
5.91589e-06
5.87139e-06
5.82586e-06
5.77943e-06
5.73218e-06
5.68438e-06
5.63611e-06
5.58765e-06
5.53888e-06
5.49027e-06
5.4425e-06
5.39562e-06
5.35152e-06
5.30996e-06
5.27444e-06
5.24871e-06
5.78894e-06
5.77545e-06
5.77835e-06
5.79028e-06
5.81158e-06
5.83931e-06
5.86957e-06
5.9031e-06
5.93828e-06
5.97453e-06
6.01163e-06
6.04934e-06
6.08739e-06
6.12573e-06
6.16422e-06
6.20246e-06
6.24048e-06
6.27787e-06
6.31481e-06
6.35117e-06
6.38726e-06
6.42302e-06
6.45835e-06
6.49314e-06
6.52737e-06
6.56095e-06
6.59381e-06
6.6259e-06
6.65713e-06
6.68743e-06
6.71677e-06
6.74511e-06
6.7724e-06
6.7986e-06
6.82367e-06
6.84761e-06
6.87036e-06
6.89191e-06
6.91224e-06
6.93134e-06
6.94915e-06
6.96562e-06
6.98072e-06
6.99438e-06
7.00656e-06
7.01719e-06
7.0262e-06
7.03364e-06
7.03956e-06
7.04404e-06
7.04705e-06
7.04859e-06
7.04867e-06
7.04729e-06
7.04445e-06
7.04015e-06
7.0344e-06
7.02722e-06
7.01861e-06
7.00859e-06
6.9972e-06
6.98446e-06
6.97036e-06
6.95494e-06
6.9382e-06
6.92017e-06
6.90086e-06
6.8803e-06
6.85845e-06
6.83529e-06
6.81042e-06
6.78397e-06
6.75615e-06
6.72703e-06
6.69671e-06
6.66524e-06
6.63273e-06
6.59911e-06
6.56447e-06
6.5288e-06
6.49224e-06
6.45471e-06
6.41636e-06
6.37723e-06
6.33742e-06
6.29699e-06
6.25601e-06
6.21457e-06
6.17284e-06
6.13088e-06
6.08885e-06
6.04666e-06
6.00462e-06
5.96329e-06
5.92275e-06
5.88456e-06
5.84882e-06
5.81857e-06
5.797e-06
6.17964e-06
6.17119e-06
6.17682e-06
6.19119e-06
6.21404e-06
6.24298e-06
6.2747e-06
6.3097e-06
6.34654e-06
6.38459e-06
6.42362e-06
6.46334e-06
6.50344e-06
6.54384e-06
6.5844e-06
6.62473e-06
6.66478e-06
6.70409e-06
6.7428e-06
6.78066e-06
6.81802e-06
6.85484e-06
6.891e-06
6.92639e-06
6.96094e-06
6.99457e-06
7.0272e-06
7.05875e-06
7.08913e-06
7.11831e-06
7.14621e-06
7.1728e-06
7.19802e-06
7.22185e-06
7.24424e-06
7.26518e-06
7.28462e-06
7.30254e-06
7.31893e-06
7.33377e-06
7.347e-06
7.35861e-06
7.36855e-06
7.3768e-06
7.38334e-06
7.38813e-06
7.3912e-06
7.39259e-06
7.39237e-06
7.39059e-06
7.38727e-06
7.38243e-06
7.37611e-06
7.36834e-06
7.35915e-06
7.34858e-06
7.33666e-06
7.32345e-06
7.30898e-06
7.29332e-06
7.27652e-06
7.25862e-06
7.23966e-06
7.21969e-06
7.19873e-06
7.17683e-06
7.15401e-06
7.13029e-06
7.10564e-06
7.07988e-06
7.05304e-06
7.02532e-06
6.99688e-06
6.96778e-06
6.93812e-06
6.90795e-06
6.87734e-06
6.84626e-06
6.81477e-06
6.78285e-06
6.75058e-06
6.71791e-06
6.68495e-06
6.65173e-06
6.6183e-06
6.5847e-06
6.55098e-06
6.51716e-06
6.48332e-06
6.44948e-06
6.41571e-06
6.38191e-06
6.34827e-06
6.31518e-06
6.28276e-06
6.25225e-06
6.22394e-06
6.20042e-06
6.1844e-06
6.4592e-06
6.45654e-06
6.46586e-06
6.48347e-06
6.50856e-06
6.53929e-06
6.57281e-06
6.60943e-06
6.64787e-06
6.68749e-06
6.72803e-06
6.76921e-06
6.81073e-06
6.85236e-06
6.89397e-06
6.93516e-06
6.97599e-06
7.01596e-06
7.05518e-06
7.09323e-06
7.13051e-06
7.16696e-06
7.20246e-06
7.23691e-06
7.27022e-06
7.30229e-06
7.33305e-06
7.36241e-06
7.39031e-06
7.41667e-06
7.44147e-06
7.46464e-06
7.48615e-06
7.50596e-06
7.52406e-06
7.54042e-06
7.555e-06
7.56781e-06
7.57882e-06
7.58803e-06
7.5954e-06
7.60094e-06
7.60463e-06
7.60648e-06
7.6065e-06
7.60472e-06
7.60118e-06
7.59596e-06
7.58912e-06
7.58073e-06
7.57084e-06
7.55949e-06
7.54676e-06
7.53271e-06
7.5174e-06
7.50089e-06
7.48325e-06
7.46456e-06
7.44489e-06
7.42431e-06
7.40291e-06
7.38075e-06
7.35789e-06
7.33439e-06
7.31029e-06
7.28564e-06
7.26045e-06
7.23475e-06
7.20851e-06
7.18171e-06
7.15455e-06
7.12718e-06
7.09969e-06
7.07216e-06
7.04466e-06
7.01723e-06
6.98996e-06
6.96281e-06
6.93581e-06
6.90894e-06
6.88222e-06
6.8556e-06
6.82913e-06
6.80285e-06
6.77678e-06
6.75093e-06
6.72528e-06
6.69984e-06
6.67462e-06
6.64959e-06
6.62474e-06
6.59998e-06
6.57538e-06
6.55123e-06
6.52761e-06
6.5055e-06
6.48529e-06
6.46912e-06
6.4594e-06
6.6626e-06
6.66589e-06
6.67921e-06
6.70021e-06
6.72773e-06
6.76059e-06
6.79607e-06
6.83423e-06
6.87395e-06
6.91461e-06
6.95594e-06
6.99766e-06
7.03949e-06
7.08118e-06
7.12263e-06
7.16339e-06
7.20356e-06
7.24264e-06
7.28065e-06
7.31742e-06
7.35313e-06
7.38771e-06
7.42103e-06
7.45298e-06
7.48347e-06
7.51242e-06
7.53974e-06
7.56537e-06
7.58923e-06
7.61128e-06
7.63149e-06
7.64981e-06
7.66621e-06
7.68067e-06
7.69319e-06
7.70374e-06
7.71233e-06
7.71895e-06
7.72361e-06
7.72631e-06
7.72706e-06
7.72588e-06
7.7228e-06
7.71784e-06
7.71108e-06
7.70256e-06
7.69237e-06
7.6806e-06
7.66731e-06
7.6526e-06
7.63654e-06
7.61921e-06
7.6007e-06
7.58111e-06
7.56053e-06
7.53904e-06
7.51673e-06
7.49369e-06
7.47001e-06
7.44579e-06
7.42111e-06
7.39607e-06
7.37074e-06
7.34518e-06
7.31943e-06
7.29354e-06
7.26754e-06
7.24142e-06
7.21527e-06
7.18923e-06
7.16347e-06
7.1381e-06
7.11318e-06
7.08873e-06
7.06482e-06
7.04148e-06
7.01877e-06
6.99668e-06
6.97521e-06
6.95433e-06
6.934e-06
6.91419e-06
6.89487e-06
6.87607e-06
6.85779e-06
6.83999e-06
6.82266e-06
6.80574e-06
6.7892e-06
6.77297e-06
6.75702e-06
6.74122e-06
6.72559e-06
6.71032e-06
6.69547e-06
6.68181e-06
6.66971e-06
6.66094e-06
6.65768e-06
6.8126e-06
6.82159e-06
6.83909e-06
6.86341e-06
6.89314e-06
6.92745e-06
6.96406e-06
7.00286e-06
7.04289e-06
7.08355e-06
7.1246e-06
7.16573e-06
7.20673e-06
7.24727e-06
7.28733e-06
7.32644e-06
7.36464e-06
7.40134e-06
7.43677e-06
7.47079e-06
7.50346e-06
7.53466e-06
7.5643e-06
7.59226e-06
7.61847e-06
7.64286e-06
7.66534e-06
7.68588e-06
7.70441e-06
7.72091e-06
7.73535e-06
7.7477e-06
7.75796e-06
7.76613e-06
7.77219e-06
7.77618e-06
7.7781e-06
7.77797e-06
7.77584e-06
7.77172e-06
7.76565e-06
7.7577e-06
7.7479e-06
7.73634e-06
7.7231e-06
7.70827e-06
7.69196e-06
7.67426e-06
7.65529e-06
7.63512e-06
7.61387e-06
7.59163e-06
7.56852e-06
7.54464e-06
7.52012e-06
7.49506e-06
7.46956e-06
7.44373e-06
7.41764e-06
7.39141e-06
7.36511e-06
7.33885e-06
7.31271e-06
7.28677e-06
7.26107e-06
7.23565e-06
7.21052e-06
7.18575e-06
7.16149e-06
7.13791e-06
7.11515e-06
7.09325e-06
7.07225e-06
7.05217e-06
7.03301e-06
7.01479e-06
6.99755e-06
6.98129e-06
6.96598e-06
6.95158e-06
6.93804e-06
6.92531e-06
6.91331e-06
6.90204e-06
6.89148e-06
6.8816e-06
6.87232e-06
6.86358e-06
6.85532e-06
6.84745e-06
6.8399e-06
6.83253e-06
6.82532e-06
6.8184e-06
6.81179e-06
6.80608e-06
6.80162e-06
6.7998e-06
6.80263e-06
6.92363e-06
6.93759e-06
6.95836e-06
6.98504e-06
7.0161e-06
7.05101e-06
7.08779e-06
7.12624e-06
7.16553e-06
7.20511e-06
7.24476e-06
7.28415e-06
7.32316e-06
7.36139e-06
7.39882e-06
7.43483e-06
7.46956e-06
7.5027e-06
7.53423e-06
7.56408e-06
7.59228e-06
7.61874e-06
7.64334e-06
7.66602e-06
7.6867e-06
7.70533e-06
7.72186e-06
7.73626e-06
7.74849e-06
7.75856e-06
7.76644e-06
7.77214e-06
7.77567e-06
7.77705e-06
7.7763e-06
7.77346e-06
7.76858e-06
7.76169e-06
7.75287e-06
7.74218e-06
7.72968e-06
7.71545e-06
7.69958e-06
7.68216e-06
7.66329e-06
7.6431e-06
7.62171e-06
7.59924e-06
7.57581e-06
7.55153e-06
7.52651e-06
7.50086e-06
7.47471e-06
7.44816e-06
7.42136e-06
7.39442e-06
7.36746e-06
7.34058e-06
7.31386e-06
7.28739e-06
7.26124e-06
7.23551e-06
7.21028e-06
7.18565e-06
7.16164e-06
7.1383e-06
7.11564e-06
7.09386e-06
7.07303e-06
7.05327e-06
7.0347e-06
7.01733e-06
7.00119e-06
6.98627e-06
6.97255e-06
6.96e-06
6.94866e-06
6.93851e-06
6.9295e-06
6.9216e-06
6.91473e-06
6.90884e-06
6.90377e-06
6.89956e-06
6.89619e-06
6.89361e-06
6.89174e-06
6.8905e-06
6.88979e-06
6.88953e-06
6.88961e-06
6.88991e-06
6.89036e-06
6.89102e-06
6.89191e-06
6.89347e-06
6.89602e-06
6.9007e-06
6.90923e-06
7.00323e-06
7.02111e-06
7.04424e-06
7.0723e-06
7.10377e-06
7.1383e-06
7.17422e-06
7.21127e-06
7.24875e-06
7.28614e-06
7.32328e-06
7.35982e-06
7.39564e-06
7.43016e-06
7.46344e-06
7.49516e-06
7.52521e-06
7.55338e-06
7.57968e-06
7.6041e-06
7.62661e-06
7.64715e-06
7.66563e-06
7.68201e-06
7.69623e-06
7.70827e-06
7.71808e-06
7.72568e-06
7.73106e-06
7.73424e-06
7.73523e-06
7.73407e-06
7.73078e-06
7.72541e-06
7.718e-06
7.70862e-06
7.69732e-06
7.6842e-06
7.66935e-06
7.65285e-06
7.63481e-06
7.61532e-06
7.59449e-06
7.57243e-06
7.54926e-06
7.52511e-06
7.5001e-06
7.47437e-06
7.44808e-06
7.42134e-06
7.39426e-06
7.36696e-06
7.33955e-06
7.31214e-06
7.28486e-06
7.25783e-06
7.23118e-06
7.20499e-06
7.17934e-06
7.15431e-06
7.12997e-06
7.10636e-06
7.08358e-06
7.06169e-06
7.04075e-06
7.02076e-06
7.00184e-06
6.98415e-06
6.96772e-06
6.95261e-06
6.93888e-06
6.92656e-06
6.91563e-06
6.90608e-06
6.89785e-06
6.89083e-06
6.88512e-06
6.88073e-06
6.87761e-06
6.87571e-06
6.87494e-06
6.87527e-06
6.87658e-06
6.87887e-06
6.88208e-06
6.88616e-06
6.891e-06
6.89651e-06
6.90259e-06
6.90914e-06
6.91604e-06
6.92316e-06
6.93042e-06
6.93779e-06
6.94528e-06
6.95318e-06
6.96177e-06
6.97197e-06
6.98527e-06
7.05594e-06
7.07675e-06
7.10129e-06
7.12973e-06
7.16063e-06
7.19379e-06
7.22782e-06
7.2624e-06
7.29701e-06
7.33114e-06
7.36461e-06
7.39692e-06
7.42804e-06
7.45765e-06
7.48561e-06
7.51166e-06
7.53575e-06
7.55778e-06
7.57778e-06
7.59573e-06
7.61162e-06
7.62539e-06
7.63702e-06
7.64645e-06
7.65368e-06
7.65869e-06
7.66148e-06
7.66209e-06
7.66053e-06
7.65686e-06
7.65113e-06
7.64339e-06
7.6337e-06
7.62213e-06
7.60874e-06
7.59362e-06
7.57686e-06
7.55854e-06
7.53879e-06
7.51772e-06
7.49547e-06
7.47215e-06
7.44787e-06
7.42276e-06
7.39693e-06
7.37051e-06
7.34363e-06
7.31643e-06
7.28905e-06
7.26164e-06
7.2343e-06
7.20713e-06
7.18024e-06
7.15372e-06
7.12768e-06
7.10223e-06
7.07747e-06
7.05348e-06
7.03033e-06
7.00807e-06
6.98677e-06
6.96646e-06
6.94719e-06
6.92903e-06
6.91199e-06
6.8961e-06
6.88157e-06
6.8684e-06
6.85657e-06
6.84609e-06
6.8371e-06
6.8296e-06
6.82358e-06
6.81902e-06
6.81585e-06
6.81403e-06
6.81361e-06
6.81456e-06
6.81683e-06
6.82036e-06
6.82508e-06
6.83093e-06
6.83784e-06
6.84579e-06
6.85471e-06
6.86454e-06
6.87517e-06
6.88652e-06
6.89845e-06
6.91088e-06
6.92367e-06
6.9367e-06
6.94984e-06
6.96303e-06
6.97622e-06
6.98957e-06
7.00332e-06
7.01814e-06
7.03531e-06
7.08468e-06
7.10744e-06
7.13244e-06
7.16026e-06
7.18963e-06
7.22042e-06
7.25153e-06
7.28264e-06
7.31323e-06
7.34275e-06
7.37112e-06
7.39801e-06
7.42326e-06
7.44662e-06
7.46803e-06
7.48733e-06
7.50453e-06
7.5196e-06
7.53255e-06
7.54338e-06
7.55209e-06
7.55866e-06
7.5631e-06
7.56539e-06
7.56555e-06
7.56361e-06
7.55958e-06
7.55351e-06
7.54547e-06
7.53551e-06
7.52373e-06
7.51022e-06
7.49506e-06
7.47833e-06
7.46012e-06
7.44053e-06
7.41966e-06
7.39762e-06
7.37452e-06
7.3505e-06
7.32569e-06
7.30024e-06
7.27425e-06
7.24785e-06
7.22115e-06
7.19427e-06
7.16733e-06
7.14045e-06
7.11376e-06
7.08738e-06
7.06141e-06
7.03594e-06
7.01106e-06
6.98686e-06
6.9634e-06
6.94078e-06
6.91906e-06
6.8983e-06
6.87855e-06
6.85985e-06
6.84224e-06
6.8257e-06
6.81019e-06
6.7959e-06
6.78285e-06
6.77109e-06
6.7608e-06
6.75193e-06
6.74448e-06
6.73847e-06
6.73399e-06
6.73101e-06
6.72952e-06
6.72948e-06
6.73086e-06
6.73362e-06
6.73779e-06
6.74335e-06
6.75024e-06
6.75841e-06
6.76779e-06
6.77835e-06
6.79001e-06
6.80276e-06
6.81652e-06
6.83121e-06
6.84673e-06
6.863e-06
6.87988e-06
6.89727e-06
6.91505e-06
6.93308e-06
6.95123e-06
6.96938e-06
6.98743e-06
7.00541e-06
7.02347e-06
7.04209e-06
7.06225e-06
7.09134e-06
7.11509e-06
7.13964e-06
7.16588e-06
7.19279e-06
7.22025e-06
7.24735e-06
7.27366e-06
7.2989e-06
7.32267e-06
7.34479e-06
7.36501e-06
7.38327e-06
7.39942e-06
7.41348e-06
7.4254e-06
7.43519e-06
7.44289e-06
7.44848e-06
7.452e-06
7.45345e-06
7.45287e-06
7.4503e-06
7.44576e-06
7.43931e-06
7.43098e-06
7.42084e-06
7.40896e-06
7.39539e-06
7.38024e-06
7.3636e-06
7.3456e-06
7.32633e-06
7.3059e-06
7.2844e-06
7.26194e-06
7.23863e-06
7.21459e-06
7.18991e-06
7.16473e-06
7.13918e-06
7.11337e-06
7.08742e-06
7.06144e-06
7.03553e-06
7.0098e-06
6.98435e-06
6.95929e-06
6.9347e-06
6.91068e-06
6.8873e-06
6.86463e-06
6.84274e-06
6.82166e-06
6.80141e-06
6.78201e-06
6.76363e-06
6.74632e-06
6.73011e-06
6.71503e-06
6.70109e-06
6.68828e-06
6.67663e-06
6.66622e-06
6.65707e-06
6.64935e-06
6.64305e-06
6.63816e-06
6.63469e-06
6.63268e-06
6.63216e-06
6.63311e-06
6.63553e-06
6.63937e-06
6.64462e-06
6.65125e-06
6.65929e-06
6.6687e-06
6.67942e-06
6.69143e-06
6.70466e-06
6.71909e-06
6.73466e-06
6.75133e-06
6.76904e-06
6.7877e-06
6.80723e-06
6.82752e-06
6.84845e-06
6.86992e-06
6.8918e-06
6.91396e-06
6.93626e-06
6.95853e-06
6.98062e-06
7.00244e-06
7.02403e-06
7.04564e-06
7.06798e-06
7.0773e-06
7.10114e-06
7.12437e-06
7.14811e-06
7.17151e-06
7.19444e-06
7.2163e-06
7.23675e-06
7.25556e-06
7.27245e-06
7.28734e-06
7.30012e-06
7.31078e-06
7.31931e-06
7.32573e-06
7.33011e-06
7.33247e-06
7.33286e-06
7.33131e-06
7.32786e-06
7.32254e-06
7.31541e-06
7.30656e-06
7.29605e-06
7.28394e-06
7.27032e-06
7.25526e-06
7.23885e-06
7.22117e-06
7.20232e-06
7.18241e-06
7.16156e-06
7.13985e-06
7.11741e-06
7.09433e-06
7.07072e-06
7.04667e-06
7.02231e-06
6.99771e-06
6.97302e-06
6.94831e-06
6.92368e-06
6.89922e-06
6.87501e-06
6.85114e-06
6.82769e-06
6.8047e-06
6.78218e-06
6.76025e-06
6.73904e-06
6.71863e-06
6.69905e-06
6.68035e-06
6.66255e-06
6.64566e-06
6.62972e-06
6.61486e-06
6.6011e-06
6.58847e-06
6.57696e-06
6.5666e-06
6.55738e-06
6.54933e-06
6.54253e-06
6.53698e-06
6.53286e-06
6.5301e-06
6.52871e-06
6.52872e-06
6.53013e-06
6.53298e-06
6.53724e-06
6.54291e-06
6.54995e-06
6.55837e-06
6.56815e-06
6.57929e-06
6.59176e-06
6.60553e-06
6.62056e-06
6.6368e-06
6.65426e-06
6.67286e-06
6.69259e-06
6.71337e-06
6.73512e-06
6.75777e-06
6.7812e-06
6.8053e-06
6.82997e-06
6.85508e-06
6.88052e-06
6.90611e-06
6.93167e-06
6.957e-06
6.98189e-06
7.00627e-06
7.03011e-06
7.05384e-06
7.04374e-06
7.06675e-06
7.08767e-06
7.10782e-06
7.12665e-06
7.14409e-06
7.15976e-06
7.17341e-06
7.185e-06
7.19444e-06
7.20173e-06
7.20689e-06
7.20996e-06
7.211e-06
7.21007e-06
7.20729e-06
7.2027e-06
7.19642e-06
7.18847e-06
7.17893e-06
7.16787e-06
7.15535e-06
7.14147e-06
7.12631e-06
7.10996e-06
7.09251e-06
7.07406e-06
7.05468e-06
7.03449e-06
7.01357e-06
6.99205e-06
6.97e-06
6.94751e-06
6.92467e-06
6.90157e-06
6.87831e-06
6.85496e-06
6.83159e-06
6.80828e-06
6.78501e-06
6.76195e-06
6.73921e-06
6.71687e-06
6.69499e-06
6.67363e-06
6.65284e-06
6.63265e-06
6.61307e-06
6.5942e-06
6.57616e-06
6.55898e-06
6.54269e-06
6.52732e-06
6.51287e-06
6.49937e-06
6.48686e-06
6.47542e-06
6.46507e-06
6.45581e-06
6.44766e-06
6.44062e-06
6.4347e-06
6.42992e-06
6.42634e-06
6.42401e-06
6.42301e-06
6.4233e-06
6.42489e-06
6.4278e-06
6.43204e-06
6.43762e-06
6.44453e-06
6.45277e-06
6.46232e-06
6.47318e-06
6.48534e-06
6.4988e-06
6.51354e-06
6.52953e-06
6.54676e-06
6.56519e-06
6.58482e-06
6.60561e-06
6.62752e-06
6.6505e-06
6.67447e-06
6.69936e-06
6.72506e-06
6.75147e-06
6.77848e-06
6.80596e-06
6.83382e-06
6.86186e-06
6.88987e-06
6.91763e-06
6.9448e-06
6.97121e-06
6.99656e-06
7.02094e-06
6.99146e-06
7.01273e-06
7.03048e-06
7.04618e-06
7.05962e-06
7.07085e-06
7.07977e-06
7.0863e-06
7.09055e-06
7.09261e-06
7.09256e-06
7.09051e-06
7.08656e-06
7.08081e-06
7.07336e-06
7.06435e-06
7.05385e-06
7.04201e-06
7.02888e-06
7.01455e-06
6.99912e-06
6.98267e-06
6.96527e-06
6.94702e-06
6.92799e-06
6.90829e-06
6.88799e-06
6.86718e-06
6.84593e-06
6.82431e-06
6.80232e-06
6.78015e-06
6.75788e-06
6.7356e-06
6.71336e-06
6.69125e-06
6.66932e-06
6.64761e-06
6.62617e-06
6.60501e-06
6.58426e-06
6.564e-06
6.5443e-06
6.5252e-06
6.50672e-06
6.48891e-06
6.47177e-06
6.45534e-06
6.43971e-06
6.42494e-06
6.41105e-06
6.39806e-06
6.38597e-06
6.37481e-06
6.36459e-06
6.35536e-06
6.34716e-06
6.33999e-06
6.33385e-06
6.32876e-06
6.32471e-06
6.32173e-06
6.31984e-06
6.31904e-06
6.31947e-06
6.32108e-06
6.32389e-06
6.32789e-06
6.3331e-06
6.33954e-06
6.3472e-06
6.35608e-06
6.36619e-06
6.37752e-06
6.39008e-06
6.40386e-06
6.41886e-06
6.43507e-06
6.45249e-06
6.4711e-06
6.49089e-06
6.51186e-06
6.53397e-06
6.55721e-06
6.58153e-06
6.60687e-06
6.63314e-06
6.66026e-06
6.68812e-06
6.71661e-06
6.74562e-06
6.77504e-06
6.80469e-06
6.83431e-06
6.86364e-06
6.89228e-06
6.91993e-06
6.94604e-06
6.97025e-06
6.92178e-06
6.94054e-06
6.95444e-06
6.96515e-06
6.97285e-06
6.97773e-06
6.97998e-06
6.97968e-06
6.97711e-06
6.97246e-06
6.96589e-06
6.95755e-06
6.94759e-06
6.93616e-06
6.92341e-06
6.90946e-06
6.8944e-06
6.87839e-06
6.86149e-06
6.84379e-06
6.82533e-06
6.80613e-06
6.78637e-06
6.76616e-06
6.74557e-06
6.72469e-06
6.70359e-06
6.68233e-06
6.66097e-06
6.63954e-06
6.61808e-06
6.59674e-06
6.57559e-06
6.55469e-06
6.53409e-06
6.51383e-06
6.49395e-06
6.47448e-06
6.45544e-06
6.43687e-06
6.41886e-06
6.40147e-06
6.38473e-06
6.36866e-06
6.35328e-06
6.33861e-06
6.32467e-06
6.3115e-06
6.29914e-06
6.28763e-06
6.27698e-06
6.2672e-06
6.25829e-06
6.25027e-06
6.24316e-06
6.23698e-06
6.23174e-06
6.22746e-06
6.22412e-06
6.22174e-06
6.22032e-06
6.21988e-06
6.22043e-06
6.22196e-06
6.22462e-06
6.22832e-06
6.23308e-06
6.23891e-06
6.24581e-06
6.25381e-06
6.26289e-06
6.27307e-06
6.28436e-06
6.29676e-06
6.31028e-06
6.32493e-06
6.34071e-06
6.35763e-06
6.37568e-06
6.39488e-06
6.41521e-06
6.43669e-06
6.4593e-06
6.48304e-06
6.50786e-06
6.53371e-06
6.56053e-06
6.58822e-06
6.61668e-06
6.64582e-06
6.67552e-06
6.70567e-06
6.73607e-06
6.76646e-06
6.7965e-06
6.82574e-06
6.85373e-06
6.87966e-06
6.90287e-06
6.83686e-06
6.85265e-06
6.86242e-06
6.86813e-06
6.87027e-06
6.86924e-06
6.86543e-06
6.85908e-06
6.85061e-06
6.8403e-06
6.82834e-06
6.8149e-06
6.80017e-06
6.78427e-06
6.76729e-06
6.74944e-06
6.73086e-06
6.71172e-06
6.69207e-06
6.67201e-06
6.65155e-06
6.63073e-06
6.60975e-06
6.58868e-06
6.56759e-06
6.54655e-06
6.52561e-06
6.50483e-06
6.48423e-06
6.46386e-06
6.44376e-06
6.42403e-06
6.40473e-06
6.38588e-06
6.36751e-06
6.34965e-06
6.33232e-06
6.31553e-06
6.29931e-06
6.28369e-06
6.26872e-06
6.25444e-06
6.24085e-06
6.22796e-06
6.21579e-06
6.20435e-06
6.19365e-06
6.18371e-06
6.17456e-06
6.16622e-06
6.15869e-06
6.15196e-06
6.14605e-06
6.14095e-06
6.13669e-06
6.13327e-06
6.13069e-06
6.12895e-06
6.12805e-06
6.12801e-06
6.12881e-06
6.13046e-06
6.13299e-06
6.13639e-06
6.14075e-06
6.146e-06
6.15216e-06
6.15924e-06
6.16724e-06
6.17617e-06
6.18605e-06
6.19688e-06
6.20868e-06
6.22146e-06
6.23525e-06
6.25005e-06
6.26588e-06
6.28275e-06
6.30068e-06
6.31969e-06
6.33978e-06
6.36098e-06
6.38329e-06
6.40671e-06
6.43121e-06
6.45676e-06
6.48329e-06
6.51072e-06
6.53897e-06
6.56792e-06
6.59749e-06
6.62754e-06
6.65787e-06
6.68818e-06
6.71809e-06
6.74706e-06
6.77451e-06
6.79936e-06
6.82083e-06
6.74013e-06
6.75278e-06
6.75854e-06
6.75963e-06
6.7568e-06
6.75062e-06
6.74166e-06
6.73026e-06
6.71689e-06
6.70183e-06
6.68538e-06
6.66776e-06
6.64916e-06
6.62972e-06
6.60954e-06
6.58886e-06
6.56784e-06
6.54664e-06
6.5253e-06
6.50391e-06
6.48251e-06
6.46115e-06
6.43999e-06
6.41907e-06
6.39845e-06
6.37818e-06
6.3583e-06
6.33883e-06
6.31981e-06
6.30125e-06
6.28321e-06
6.26574e-06
6.24886e-06
6.23259e-06
6.21694e-06
6.2019e-06
6.1875e-06
6.17373e-06
6.16061e-06
6.14817e-06
6.13641e-06
6.12536e-06
6.11501e-06
6.10536e-06
6.09641e-06
6.08817e-06
6.08065e-06
6.07384e-06
6.06777e-06
6.06243e-06
6.05782e-06
6.05394e-06
6.05077e-06
6.04834e-06
6.04662e-06
6.04564e-06
6.04537e-06
6.04583e-06
6.047e-06
6.04888e-06
6.05148e-06
6.05481e-06
6.05884e-06
6.06366e-06
6.06922e-06
6.07551e-06
6.08254e-06
6.09031e-06
6.09884e-06
6.10813e-06
6.11821e-06
6.12908e-06
6.14077e-06
6.15329e-06
6.16668e-06
6.18096e-06
6.19615e-06
6.21228e-06
6.22938e-06
6.24747e-06
6.26657e-06
6.28674e-06
6.30797e-06
6.33029e-06
6.35368e-06
6.37812e-06
6.40357e-06
6.42994e-06
6.45715e-06
6.48512e-06
6.51374e-06
6.54288e-06
6.57234e-06
6.60177e-06
6.63076e-06
6.65866e-06
6.68482e-06
6.70806e-06
6.72725e-06
6.63551e-06
6.64506e-06
6.64712e-06
6.64409e-06
6.63692e-06
6.62632e-06
6.61298e-06
6.59733e-06
6.5799e-06
6.56103e-06
6.54106e-06
6.52024e-06
6.49876e-06
6.47679e-06
6.45448e-06
6.43206e-06
6.40969e-06
6.3875e-06
6.36555e-06
6.3439e-06
6.3226e-06
6.30171e-06
6.28133e-06
6.26149e-06
6.24222e-06
6.22355e-06
6.2055e-06
6.18809e-06
6.17133e-06
6.15523e-06
6.13982e-06
6.12512e-06
6.11112e-06
6.09782e-06
6.08523e-06
6.07332e-06
6.06211e-06
6.05157e-06
6.04172e-06
6.03256e-06
6.02409e-06
6.0163e-06
6.00918e-06
6.00273e-06
5.99694e-06
5.9918e-06
5.98731e-06
5.98348e-06
5.98029e-06
5.97774e-06
5.97581e-06
5.97451e-06
5.97382e-06
5.97374e-06
5.97426e-06
5.97538e-06
5.97709e-06
5.97937e-06
5.98223e-06
5.98567e-06
5.98967e-06
5.99425e-06
5.99939e-06
6.00514e-06
6.01145e-06
6.0183e-06
6.02571e-06
6.03368e-06
6.04222e-06