/*--------------------------------*- C++ -*----------------------------------*\
| =========                 |                                                 |
| \\      /  F ield         | OpenFOAM: The Open Source CFD Toolbox           |
|  \\    /   O peration     | Version:  2306                                  |
|   \\  /    A nd           | Website:  www.openfoam.com                      |
|    \\/     M anipulation  |                                                 |
\*---------------------------------------------------------------------------*/
FoamFile
{
    version     2.0;
    format      ascii;
    arch        "LSB;label=32;scalar=64";
    class       volVectorField;
    location    "20000";
    object      U;
}
// * * * * * * * * * * * * * * * * * * * * * * * * * * * * * * * * * * * * * //

dimensions      [0 1 -1 0 0 0 0];

internalField   nonuniform List<vector> 
14751
(
(-1.06907e-07 0.00158869 0)
(5.93468000004e-08 0.00158241 0)
(-1.08456e-07 0.00158323 -1.91588e-26)
(-9.78682999997e-08 0.00157494 1.91701e-26)
(-1.58358e-07 0.0015687 -3.52207e-26)
(-1.96819e-07 0.00155739 5.86369e-25)
(-2.23599e-07 0.00154429 0)
(-2.59271e-07 0.00152917 -7.62195e-27)
(-2.8298e-07 0.00151164 3.93091e-28)
(-3.02955e-07 0.00149246 -6.47803e-27)
(-3.15626e-07 0.00147176 7.38932e-28)
(-3.25742e-07 0.00144979 8.22428e-25)
(-3.29734e-07 0.00142671 0)
(-3.28328e-07 0.00140304 -2.20552e-26)
(-3.24491e-07 0.00137892 -6.64927e-25)
(-3.12383e-07 0.00135467 -3.25897e-25)
(-3.00936e-07 0.00133053 1.88957e-26)
(-2.82163e-07 0.00130657 -1.89133e-26)
(-2.64658e-07 0.0012831 -2.82207e-25)
(-2.43827e-07 0.00126018 -2.70857e-25)
(-2.23998e-07 0.00123806 0)
(-2.04146e-07 0.00121671 -2.68516e-25)
(-1.85691e-07 0.00119625 1.56068e-26)
(-1.67942e-07 0.00117676 -1.496e-26)
(-1.51681e-07 0.00115835 1.49717e-26)
(-1.35818e-07 0.00114095 4.71107e-25)
(-1.21943e-07 0.00112461 0)
(-1.08281e-07 0.00110932 1.17725e-25)
(-9.62954999998e-08 0.00109508 0)
(-8.49691999998e-08 0.00108195 0)
(-7.47202999998e-08 0.00106991 0)
(-6.51922999998e-08 0.00105895 0)
(-5.65804999998e-08 0.00104904 0)
(-4.85663999998e-08 0.00104017 8.39245e-27)
(-4.12116999998e-08 0.00103235 -8.39529e-27)
(-3.40467999998e-08 0.00102551 2.91215e-25)
(-2.78220999998e-08 0.00101961 -3.01445e-25)
(-2.20089999998e-08 0.00101469 -3.03481e-25)
(-1.65237999998e-08 0.00101072 0)
(-1.05795999998e-08 0.00100765 0)
(-5.29640999978e-09 0.00100542 2.71504e-27)
(-1.88875999978e-09 0.00100409 -2.71517e-27)
(2.36637000022e-09 0.00100361 -2.9363e-27)
(5.23648000022e-09 0.00100398 2.9364e-27)
(8.83628000022e-09 0.00100518 1.58609e-27)
(1.18961000002e-08 0.0010071 1.58612e-27)
(1.51863000002e-08 0.00100975 -8.54918e-28)
(1.82347000002e-08 0.00101311 -2.22036e-25)
(2.14024000002e-08 0.0010172 0)
(2.40848000002e-08 0.00102199 2.37859e-28)
(2.65488000002e-08 0.00102745 -2.37839e-28)
(2.87716000002e-08 0.00103358 -5.08576e-28)
(3.09506000002e-08 0.00104036 5.08523e-28)
(3.29995000002e-08 0.00104774 1.08313e-27)
(3.49892000002e-08 0.0010557 2.82622e-25)
(3.64929000002e-08 0.00106422 -4.52883e-27)
(3.81795000002e-08 0.00107326 2.29682e-27)
(3.94238000002e-08 0.00108281 0)
(4.05745000002e-08 0.0010928 0)
(4.06114000002e-08 0.00110326 0)
(4.15848000002e-08 0.00111419 -1.32152e-24)
(4.10924000002e-08 0.00112549 -2.69386e-24)
(4.23467000003e-08 0.00113718 -1.06807e-26)
(4.36593000003e-08 0.00114914 -1.1138e-26)
(4.37172000003e-08 0.00116131 -1.15736e-26)
(4.38206000003e-08 0.00117375 7.79123e-25)
(4.40559000003e-08 0.00118642 -7.69444e-25)
(4.45954000003e-08 0.00119926 0)
(4.46512000003e-08 0.00121222 2.42624e-26)
(4.50126000003e-08 0.00122535 -2.42509e-26)
(4.52703000003e-08 0.00123859 0)
(4.61669000003e-08 0.00125192 0)
(4.70192000003e-08 0.00126535 0)
(4.83913000003e-08 0.00127884 0)
(5.04028000003e-08 0.00129239 1.03426e-25)
(5.31101000003e-08 0.00130602 -5.23485e-26)
(5.58591000003e-08 0.00131969 -1.05427e-25)
(6.06907000003e-08 0.00133344 1.05665e-25)
(6.40854000003e-08 0.00134722 -1.0595e-25)
(7.25137000003e-08 0.00136112 -5.32054e-26)
(7.72138000003e-08 0.0013751 1.0698e-25)
(8.75196000003e-08 0.0013891 0)
(9.59200000003e-08 0.00140327 0)
(1.06802e-07 0.00141745 -5.35673e-26)
(1.17271e-07 0.0014317 5.35191e-26)
(1.28608e-07 0.00144601 0)
(1.38149e-07 0.00146031 0)
(1.49028e-07 0.00147453 0)
(1.56595e-07 0.00148859 0)
(1.67305e-07 0.00150247 -1.67231e-24)
(1.70223e-07 0.00151594 1.28848e-26)
(1.72664e-07 0.00152877 0)
(1.75892e-07 0.00154122 1.23581e-26)
(1.59768e-07 0.00155235 6.1348e-26)
(1.64198e-07 0.00156249 -3.5676e-26)
(1.42533e-07 0.00157148 1.18741e-26)
(1.14097e-07 0.00157738 3.72432e-25)
(4.04486000004e-08 0.00157968 -5.67499e-27)
(1.85752e-07 0.00158799 -6.9537e-25)
(-6.17145999999e-07 0.00471779 -3.10641e-23)
(-4.4810599999e-08 0.00469901 0)
(-6.69556999999e-07 0.00469684 -5.62616e-23)
(-8.03275999999e-07 0.00467564 -1.78376e-24)
(-1.0922e-06 0.00465882 1.04251e-22)
(-1.39629e-06 0.00463064 1.70516e-24)
(-1.57253e-06 0.00459766 7.89801e-25)
(-1.79231e-06 0.00455949 0)
(-1.96639e-06 0.00451522 -9.52933e-23)
(-2.11299e-06 0.00446656 5.49159e-24)
(-2.22835e-06 0.00441389 0)
(-2.32331e-06 0.00435787 -1.20695e-24)
(-2.38771e-06 0.00429893 0)
(-2.42268e-06 0.00423831 0)
(-2.44078e-06 0.0041764 5.92379e-23)
(-2.42107e-06 0.00411404 8.5969e-24)
(-2.40059e-06 0.00405184 -6.01739e-23)
(-2.34687e-06 0.00399002 -1.40628e-23)
(-2.29004e-06 0.0039294 1.45527e-23)
(-2.2139e-06 0.00387013 4.1512e-25)
(-2.12989e-06 0.0038129 6.31903e-24)
(-2.03824e-06 0.00375765 -5.95291e-24)
(-1.94144e-06 0.00370469 0)
(-1.83893e-06 0.00365426 0)
(-1.73341e-06 0.00360663 0)
(-1.62351e-06 0.00356168 -7.3385e-25)
(-1.51578e-06 0.00351954 4.10577e-23)
(-1.40463e-06 0.00348024 5.28557e-23)
(-1.2967e-06 0.00344378 0)
(-1.18812e-06 0.0034103 -2.11266e-23)
(-1.08206e-06 0.00337977 -2.7707e-23)
(-9.77540999999e-07 0.00335217 2.5241e-23)
(-8.75625999999e-07 0.00332746 0)
(-7.75018999999e-07 0.00330562 -3.39458e-24)
(-6.76953999999e-07 0.00328664 3.45355e-23)
(-5.80991999999e-07 0.00327037 -5.78341e-24)
(-4.88466999999e-07 0.00325674 2.28569e-24)
(-3.97246999999e-07 0.00324582 1.58881e-23)
(-3.08329999999e-07 0.00323755 0)
(-2.20258999999e-07 0.00323179 0)
(-1.35636999999e-07 0.0032284 -2.20963e-24)
(-5.74080999993e-08 0.00322752 2.2107e-24)
(2.10694000007e-08 0.00322903 -8.18357e-24)
(9.36211000007e-08 0.00323289 -1.19598e-24)
(1.65317000001e-07 0.00323906 0)
(2.32258000001e-07 0.00324724 0)
(2.99574000001e-07 0.00325743 0)
(3.66108000001e-07 0.00326958 3.19104e-24)
(4.32773000001e-07 0.00328372 0)
(4.95891000001e-07 0.00329981 0)
(5.56642000001e-07 0.00331773 4.00419e-25)
(6.15591000001e-07 0.00333747 -4.00192e-25)
(6.72093000001e-07 0.00335897 0)
(7.26137000001e-07 0.00338208 6.93146e-24)
(7.78119000001e-07 0.00340675 -1.47273e-23)
(8.26214000001e-07 0.00343287 -1.86346e-24)
(8.72912000001e-07 0.00346036 1.50518e-23)
(9.15391000001e-07 0.00348912 1.91225e-24)
(9.55424000001e-07 0.00351901 -2.77796e-23)
(9.90769000001e-07 0.00355006 -4.02179e-24)
(1.02608e-06 0.0035822 6.29974e-24)
(1.05468e-06 0.00361521 4.89013e-26)
(1.08568e-06 0.00364908 0)
(1.11268e-06 0.00368348 8.95686e-24)
(1.1339e-06 0.00371828 -8.9416e-24)
(1.15377e-06 0.00375356 -1.14852e-24)
(1.17128e-06 0.0037892 1.16715e-24)
(1.18672e-06 0.00382504 0)
(1.19846e-06 0.00386094 0)
(1.20926e-06 0.00389695 7.78593e-23)
(1.21716e-06 0.00393294 0)
(1.22543e-06 0.00396886 -2.00183e-23)
(1.23124e-06 0.00400465 1.99678e-23)
(1.23715e-06 0.00404024 0)
(1.24396e-06 0.00407563 -1.59363e-25)
(1.25076e-06 0.00411081 0)
(1.25586e-06 0.00414571 1.61118e-25)
(1.26619e-06 0.00418035 0)
(1.27064e-06 0.0042147 1.66207e-22)
(1.2904e-06 0.00424885 0)
(1.29221e-06 0.00428281 -1.62442e-25)
(1.31212e-06 0.00431636 -1.66188e-22)
(1.32173e-06 0.00434985 1.65825e-22)
(1.33675e-06 0.00438288 -1.65251e-22)
(1.34936e-06 0.00441565 0)
(1.36163e-06 0.00444804 0)
(1.36465e-06 0.0044799 0)
(1.36984e-06 0.00451103 -1.60709e-22)
(1.36067e-06 0.00454127 -1.58979e-22)
(1.35579e-06 0.00457046 2.45324e-24)
(1.31225e-06 0.00459808 4.80718e-24)
(1.2666e-06 0.00462364 -4.78807e-24)
(1.2133e-06 0.00464748 5.79382e-25)
(1.08419e-06 0.00466792 -7.20408e-25)
(1.01952e-06 0.00468542 -1.47734e-22)
(7.96308000001e-07 0.00469961 4.4199e-24)
(5.24919000001e-07 0.00470642 -1.36806e-22)
(3.32883000001e-07 0.00470815 0)
(7.46730000001e-07 0.00472037 1.00729e-24)
(-1.59158e-06 0.00784384 8.97063e-23)
(-6.16704999998e-07 0.00781208 1.78398e-24)
(-1.81524e-06 0.00780479 6.11966e-23)
(-2.2294e-06 0.00777625 2.19329e-22)
(-2.88263e-06 0.00775433 -1.16979e-22)
(-3.65116e-06 0.0077184 6.38794e-24)
(-4.15319e-06 0.00767541 0)
(-4.7401e-06 0.00762519 0)
(-5.23915e-06 0.00756627 -2.73051e-22)
(-5.66659e-06 0.00750084 1.07149e-23)
(-6.02123e-06 0.00742944 2.9855e-22)
(-6.314e-06 0.00735305 3.03651e-22)
(-6.53583e-06 0.00727231 1.00666e-24)
(-6.68228e-06 0.00718886 2.91771e-22)
(-6.77503e-06 0.00710337 -3.42318e-22)
(-6.77626e-06 0.00701695 1.59988e-23)
(-6.7569e-06 0.00693056 -1.4949e-22)
(-6.65544e-06 0.00684452 -2.92256e-23)
(-6.53063e-06 0.00676004 0)
(-6.35609e-06 0.0066774 -1.98423e-22)
(-6.1495e-06 0.00659755 1.91704e-22)
(-5.91771e-06 0.00652049 0)
(-5.6644e-06 0.00644669 0)
(-5.39233e-06 0.00637649 0)
(-5.10327e-06 0.00631028 9.47932e-23)
(-4.79889e-06 0.00624799 0)
(-4.49369e-06 0.00618982 5.89736e-23)
(-4.17525e-06 0.00613583 -5.92939e-23)
(-3.86104e-06 0.00608607 8.40093e-23)
(-3.54155e-06 0.00604072 2.43764e-23)
(-3.225e-06 0.00599978 3.11688e-23)
(-2.91027e-06 0.00596323 -3.18025e-23)
(-2.59959e-06 0.00593103 -1.11526e-22)
(-2.2907e-06 0.00590317 1.35328e-23)
(-1.9873e-06 0.00587964 -3.4841e-23)
(-1.68857e-06 0.00586027 -7.37164e-24)
(-1.39797e-06 0.00584492 3.55622e-24)
(-1.1101e-06 0.00583372 -1.17801e-23)
(-8.28642999999e-07 0.00582658 0)
(-5.50495999999e-07 0.00582331 3.37741e-23)
(-2.82412999999e-07 0.00582375 4.48014e-24)
(-2.63960999987e-08 0.00582801 -4.48195e-24)
(2.26828000001e-07 0.00583595 9.50626e-24)
(4.64448000001e-07 0.00584749 0)
(6.96573000001e-07 0.00586253 -2.05432e-23)
(9.14066000001e-07 0.00588069 1.359e-24)
(1.1297e-06 0.00590185 -1.35835e-24)
(1.34325e-06 0.00592596 -2.13934e-24)
(1.55704e-06 0.00595302 5.21654e-24)
(1.76188e-06 0.00598301 3.88042e-25)
(1.9592e-06 0.00601574 -6.55904e-24)
(2.14986e-06 0.00605116 0)
(2.33235e-06 0.00608916 1.7224e-24)
(2.50606e-06 0.00612948 -1.22563e-23)
(2.67185e-06 0.00617202 1.79298e-23)
(2.82597e-06 0.00621659 6.2922e-23)
(2.97296e-06 0.00626302 -1.12357e-23)
(3.10752e-06 0.00631114 -7.68715e-24)
(3.23336e-06 0.00636071 4.00255e-23)
(3.34572e-06 0.0064117 2.0256e-25)
(3.45429e-06 0.00646399 1.33855e-22)
(3.54484e-06 0.0065172 -1.36281e-22)
(3.63321e-06 0.00657123 -2.61888e-23)
(3.70934e-06 0.00662567 -1.24256e-22)
(3.76934e-06 0.00668026 -1.44286e-22)
(3.82333e-06 0.00673504 -1.6515e-22)
(3.86781e-06 0.00678977 3.72157e-23)
(3.90445e-06 0.00684422 -1.8715e-23)
(3.92908e-06 0.00689815 3.05881e-22)
(3.94857e-06 0.00695155 -3.84173e-23)
(3.95865e-06 0.00700423 -7.81843e-23)
(3.96609e-06 0.00705606 3.92205e-23)
(3.96558e-06 0.00710694 -4.00235e-23)
(3.96284e-06 0.00715674 8.01735e-23)
(3.95943e-06 0.00720544 -4.01439e-23)
(3.95308e-06 0.00725301 0)
(3.94081e-06 0.00729932 3.25619e-22)
(3.93653e-06 0.00734436 -6.53028e-22)
(3.92068e-06 0.00738813 4.9053e-22)
(3.93103e-06 0.00743069 6.54302e-22)
(3.90485e-06 0.00747208 -8.18266e-23)
(3.90968e-06 0.00751199 2.44537e-22)
(3.89161e-06 0.00755087 -1.62545e-22)
(3.8795e-06 0.00758824 8.08911e-22)
(3.85749e-06 0.00762435 6.83373e-22)
(3.8274e-06 0.00765902 -6.78375e-22)
(3.77221e-06 0.00769207 0)
(3.71355e-06 0.00772322 1.17514e-22)
(3.61753e-06 0.00775231 1.93392e-22)
(3.51582e-06 0.00777905 -5.90948e-22)
(3.32678e-06 0.00780283 -6.19225e-22)
(3.1174e-06 0.00782298 4.57605e-24)
(2.8808e-06 0.00783995 -5.83112e-22)
(2.49575e-06 0.00785212 0)
(2.20739e-06 0.00785989 1.46884e-22)
(1.59515e-06 0.0078632 -8.52031e-24)
(9.52059000002e-07 0.00785791 1.29231e-22)
(5.82422000002e-07 0.00785015 2.02002e-24)
(1.17145e-06 0.00785437 1.93999e-24)
(-3.07502e-06 0.0108742 -5.52237e-23)
(-2.02305e-06 0.0108289 0)
(-3.86246e-06 0.0108141 -4.14056e-22)
(-4.80445e-06 0.0107803 -2.0586e-22)
(-5.9724e-06 0.0107552 2.67118e-25)
(-7.37393e-06 0.010716 7.439e-22)
(-8.39492e-06 0.0106683 0)
(-9.50943e-06 0.0106125 0)
(-1.04923e-05 0.0105466 9.6901e-22)
(-1.13378e-05 0.0104729 1.87297e-23)
(-1.20518e-05 0.0103921 2.56522e-22)
(-1.26376e-05 0.0103054 -2.77956e-22)
(-1.3095e-05 0.0102136 5.47729e-22)
(-1.34071e-05 0.0101185 -2.52455e-22)
(-1.36057e-05 0.010021 2.40362e-22)
(-1.36419e-05 0.00992241 -4.58402e-22)
(-1.36124e-05 0.00982385 2.1891e-22)
(-1.34375e-05 0.00972573 -4.44929e-22)
(-1.31983e-05 0.00962952 2.57631e-23)
(-1.28666e-05 0.00953557 2.17974e-22)
(-1.2463e-05 0.00944496 -2.35033e-22)
(-1.20053e-05 0.00935779 2.32351e-23)
(-1.14986e-05 0.0092746 -2.21078e-23)
(-1.09523e-05 0.00919578 2.22079e-23)
(-1.03653e-05 0.00912178 -6.52575e-23)
(-9.74692e-06 0.00905259 -2.17001e-23)
(-9.11869e-06 0.00898847 -9.71831e-23)
(-8.46234e-06 0.00892951 1.73656e-22)
(-7.8091e-06 0.00887578 -1.0976e-22)
(-7.14293e-06 0.00882747 -1.67263e-22)
(-6.47855e-06 0.00878461 1.93439e-22)
(-5.81602e-06 0.00874718 -1.15227e-23)
(-5.15866e-06 0.00871517 9.57686e-23)
(-4.50407e-06 0.00868853 0)
(-3.85871e-06 0.00866726 1.02031e-22)
(-3.22107e-06 0.00865119 6.7218e-24)
(-2.59971e-06 0.00864018 2.47134e-25)
(-1.98346e-06 0.00863432 9.95318e-23)
(-1.37902e-06 0.00863351 1.25452e-22)
(-7.81405999998e-07 0.00863759 -9.21529e-23)
(-2.05176999998e-07 0.00864635 -4.07187e-24)
(3.50579000002e-07 0.00865988 4.0708e-24)
(8.96590000002e-07 0.00867797 0)
(1.41136e-06 0.00870054 0)
(1.91208e-06 0.00872745 1.86227e-23)
(2.38098e-06 0.00875823 0)
(2.83844e-06 0.00879271 -4.0092e-23)
(3.28972e-06 0.00883068 0)
(3.74299e-06 0.00887216 -5.3777e-24)
(4.1811e-06 0.00891718 -1.73835e-25)
(4.60181e-06 0.00896549 7.20979e-24)
(5.00563e-06 0.00901697 -4.47491e-24)
(5.39129e-06 0.00907144 3.01036e-24)
(5.75612e-06 0.00912858 0)
(6.10154e-06 0.00918822 6.58175e-24)
(6.42175e-06 0.00925008 -6.66463e-23)
(6.72283e-06 0.0093139 6.7459e-24)
(6.99793e-06 0.00937945 0)
(7.25192e-06 0.00944641 1.00425e-22)
(7.47633e-06 0.00951465 1.17281e-22)
(7.68885e-06 0.00958394 -1.05391e-22)
(7.86474e-06 0.00965384 1.07236e-22)
(8.028e-06 0.00972414 -2.50684e-22)
(8.16623e-06 0.00979436 1.43287e-22)
(8.27065e-06 0.00986418 1.29754e-22)
(8.35946e-06 0.0099335 9.86189e-23)
(8.42621e-06 0.010002 3.31812e-23)
(8.47555e-06 0.0100694 -3.42313e-23)
(8.49876e-06 0.0101354 3.44053e-22)
(8.50888e-06 0.0101999 -5.91797e-22)
(8.49949e-06 0.0102626 -3.54436e-23)
(8.48082e-06 0.0103234 3.53417e-23)
(8.44607e-06 0.010382 -7.21733e-23)
(8.40432e-06 0.0104384 7.19594e-23)
(8.35831e-06 0.0104924 -7.31759e-23)
(8.30463e-06 0.010544 -7.29503e-23)
(8.23883e-06 0.0105931 -9.57347e-22)
(8.18103e-06 0.0106396 1.18183e-21)
(8.10755e-06 0.0106835 -1.70375e-21)
(8.06725e-06 0.0107248 -5.93273e-22)
(7.97485e-06 0.0107636 -1.18648e-21)
(7.91912e-06 0.0107996 -1.1851e-21)
(7.82822e-06 0.0108332 1.18219e-21)
(7.73836e-06 0.010864 -5.88906e-22)
(7.6264e-06 0.0108922 5.85914e-22)
(7.49206e-06 0.0109176 5.82162e-22)
(7.31134e-06 0.01094 -1.15503e-21)
(7.11212e-06 0.0109591 -1.14409e-21)
(6.84414e-06 0.0109748 -3.52072e-23)
(6.5462e-06 0.0109868 6.28241e-22)
(6.10698e-06 0.0109943 5.15682e-22)
(5.61049e-06 0.0109968 0)
(5.05551e-06 0.0109948 1.59283e-21)
(4.27629e-06 0.0109872 -7.03158e-24)
(3.58522e-06 0.0109742 8.02919e-24)
(2.43293e-06 0.0109568 7.66977e-24)
(1.28085e-06 0.0109317 -7.65371e-24)
(5.81211000002e-07 0.0109077 8.86453e-28)
(1.06242e-06 0.0108964 -8.97138e-25)
(-5.17667e-06 0.013615 -5.82713e-27)
(-4.45466e-06 0.0135567 2.89794e-24)
(-6.97667e-06 0.0135315 2.87442e-24)
(-8.66351e-06 0.0134909 0)
(-1.04666e-05 0.0134601 -6.72161e-22)
(-1.26039e-05 0.0134161 -6.44196e-22)
(-1.42958e-05 0.0133632 0)
(-1.60418e-05 0.013302 0)
(-1.76104e-05 0.0132303 -5.60814e-22)
(-1.89605e-05 0.0131504 -5.4989e-22)
(-2.01088e-05 0.0130631 -4.90901e-22)
(-2.10438e-05 0.0129698 0)
(-2.17766e-05 0.0128714 -9.14358e-22)
(-2.22743e-05 0.0127697 0)
(-2.25804e-05 0.0126658 -4.12358e-22)
(-2.26423e-05 0.0125609 3.92352e-22)
(-2.25696e-05 0.0124565 3.28353e-22)
(-2.22805e-05 0.0123529 4.03223e-22)
(-2.18683e-05 0.0122518 3.4265e-22)
(-2.13124e-05 0.0121535 0)
(-2.0633e-05 0.012059 3.1865e-22)
(-1.98609e-05 0.0119687 0)
(-1.9004e-05 0.011883 -3.01966e-22)
(-1.80794e-05 0.0118024 -2.96365e-22)
(-1.70846e-05 0.0117272 1.81931e-23)
(-1.60383e-05 0.0116575 -1.22451e-25)
(-1.49674e-05 0.0115936 -1.81559e-23)
(-1.38516e-05 0.0115356 1.45586e-22)
(-1.27347e-05 0.0114836 1.8484e-23)
(-1.1596e-05 0.0114377 1.30539e-22)
(-1.04567e-05 0.011398 -1.61483e-22)
(-9.3193e-06 0.0113644 9.60888e-24)
(-8.189e-06 0.011337 1.01165e-23)
(-7.06474e-06 0.0113156 -1.01256e-23)
(-5.95344e-06 0.0113002 -8.48151e-23)
(-4.85213e-06 0.0112907 -1.75463e-22)
(-3.77605e-06 0.011287 0)
(-2.70993e-06 0.0112891 -1.00294e-22)
(-1.66423e-06 0.0112969 -9.18826e-23)
(-6.32486999997e-07 0.0113102 4.43589e-23)
(3.63509000003e-07 0.0113289 6.47703e-24)
(1.32806e-06 0.0113529 -6.99856e-24)
(2.27077e-06 0.0113821 6.99196e-24)
(3.16326e-06 0.0114162 0)
(4.02872e-06 0.0114551 0)
(4.83866e-06 0.0114984 0)
(5.61526e-06 0.0115459 3.30775e-23)
(6.3742e-06 0.0115971 0)
(7.13863e-06 0.0116521 -1.83089e-23)
(7.88261e-06 0.0117108 -5.63724e-25)
(8.59383e-06 0.0117731 -1.20599e-24)
(9.27213e-06 0.0118387 -1.28495e-24)
(9.91727e-06 0.0119074 -2.64688e-24)
(1.05238e-05 0.0119789 5.12347e-24)
(1.10935e-05 0.0120528 8.57002e-23)
(1.1619e-05 0.0121289 0)
(1.21071e-05 0.0122069 1.14701e-23)
(1.25507e-05 0.0122864 3.12103e-25)
(1.29548e-05 0.0123671 -1.06904e-22)
(1.33075e-05 0.0124487 -9.74264e-23)
(1.36343e-05 0.012531 1.26005e-23)
(1.39014e-05 0.0126135 1.31547e-23)
(1.4139e-05 0.0126958 1.82083e-22)
(1.43345e-05 0.0127775 -2.67458e-23)
(1.44744e-05 0.0128583 2.66995e-23)
(1.45839e-05 0.0129378 2.76874e-23)
(1.46548e-05 0.0130158 -5.01991e-22)
(1.46952e-05 0.013092 2.80832e-23)
(1.46918e-05 0.0131658 -4.59702e-22)
(1.46639e-05 0.0132372 4.07251e-22)
(1.46037e-05 0.0133059 -7.89531e-25)
(1.45241e-05 0.0133717 5.92588e-23)
(1.44183e-05 0.0134343 0)
(1.42979e-05 0.0134935 1.0346e-21)
(1.41676e-05 0.0135493 -6.1053e-23)
(1.40256e-05 0.0136015 0)
(1.38665e-05 0.0136501 4.97429e-22)
(1.37136e-05 0.0136949 -5.00011e-22)
(1.35413e-05 0.013736 1.00397e-21)
(1.34005e-05 0.0137732 0)
(1.31975e-05 0.0138067 1.13481e-21)
(1.30258e-05 0.0138361 1.00946e-21)
(1.28081e-05 0.0138618 -1.13451e-21)
(1.25794e-05 0.0138834 0)
(1.23118e-05 0.0139011 -1.06611e-21)
(1.20014e-05 0.0139147 -9.36413e-22)
(1.16194e-05 0.013924 1.05486e-21)
(1.11936e-05 0.0139286 1.90934e-21)
(1.06624e-05 0.0139284 -9.46151e-22)
(1.00646e-05 0.013923 -3.03138e-23)
(9.27415e-06 0.0139119 9.53577e-22)
(8.37494e-06 0.0138945 -9.46918e-22)
(7.37681e-06 0.0138713 -9.16878e-22)
(6.08595e-06 0.0138418 0)
(4.8398e-06 0.0138066 -8.75013e-22)
(3.05648e-06 0.0137672 -7.01363e-24)
(1.2753e-06 0.0137219 -6.7024e-24)
(4.9134300003e-08 0.0136802 -7.77465e-28)
(1.26552000003e-07 0.0136512 -7.86697e-25)
(-7.9794e-06 0.0159158 4.97556e-27)
(-7.90751e-06 0.0158449 -4.99573e-27)
(-1.11423e-05 0.0158067 3.1448e-22)
(-1.37203e-05 0.0157561 5.90699e-22)
(-1.62376e-05 0.0157149 -5.70131e-22)
(-1.91553e-05 0.0156616 1.08977e-21)
(-2.16003e-05 0.0155994 0)
(-2.40213e-05 0.0155292 -9.89604e-22)
(-2.62159e-05 0.0154488 -9.54996e-22)
(-2.81008e-05 0.0153607 4.60701e-22)
(-2.97024e-05 0.0152656 8.46536e-22)
(-3.09903e-05 0.015165 8.2638e-22)
(-3.19917e-05 0.0150598 1.11467e-21)
(-3.26606e-05 0.014952 0)
(-3.30489e-05 0.0148426 -3.40988e-22)
(-3.31054e-05 0.0147329 -3.94412e-23)
(-3.29407e-05 0.0146241 -2.68286e-22)
(-3.24845e-05 0.014517 3.58716e-23)
(-3.18347e-05 0.014413 -3.51103e-22)
(-3.09852e-05 0.0143125 5.73878e-22)
(-2.99554e-05 0.0142167 -2.60121e-22)
(-2.87887e-05 0.0141257 3.10939e-23)
(-2.74964e-05 0.01404 2.14523e-22)
(-2.61045e-05 0.01396 4.51638e-22)
(-2.46113e-05 0.0138861 2.98958e-23)
(-2.30449e-05 0.0138184 -2.35284e-22)
(-2.14362e-05 0.0137572 1.46795e-23)
(-1.97669e-05 0.0137024 -2.50025e-22)
(-1.80901e-05 0.0136543 2.37348e-22)
(-1.63845e-05 0.0136128 1.51667e-23)
(-1.4676e-05 0.013578 2.29762e-22)
(-1.29687e-05 0.01355 0)
(-1.12705e-05 0.0135286 0)
(-9.58193e-06 0.0135137 -8.39391e-24)
(-7.91108e-06 0.0135055 -2.7633e-25)
(-6.25543e-06 0.0135036 2.81792e-22)
(-4.6367e-06 0.0135081 8.97269e-24)
(-3.03631e-06 0.0135188 -1.51526e-22)
(-1.46679e-06 0.0135357 1.57314e-22)
(7.8251200003e-08 0.0135585 0)
(1.57051e-06 0.0135871 -7.95033e-23)
(3.01737e-06 0.0136213 -5.41045e-24)
(4.42635e-06 0.013661 -5.84678e-24)
(5.76504e-06 0.013706 5.84245e-24)
(7.06163e-06 0.013756 3.15305e-24)
(8.28156e-06 0.0138109 -6.4224e-24)
(9.45328e-06 0.0138703 -5.0017e-23)
(1.05959e-05 0.0139341 -1.75843e-24)
(1.17282e-05 0.014002 1.75908e-24)
(1.28213e-05 0.0140738 4.71164e-25)
(1.38625e-05 0.0141491 4.7084e-25)
(1.485e-05 0.0142278 0)
(1.5785e-05 0.0143095 -6.5386e-23)
(1.6659e-05 0.0143939 0)
(1.74741e-05 0.0144806 -6.94708e-23)
(1.82216e-05 0.0145693 1.42969e-22)
(1.89085e-05 0.0146596 0)
(1.95282e-05 0.0147512 1.50941e-22)
(2.0085e-05 0.0148437 -9.80293e-24)
(2.05647e-05 0.0149367 9.79504e-24)
(2.09993e-05 0.0150298 3.24936e-22)
(2.13484e-05 0.0151227 3.32324e-22)
(2.1646e-05 0.015215 0)
(2.18812e-05 0.0153061 -2.18806e-23)
(2.20365e-05 0.0153956 3.97547e-22)
(2.21422e-05 0.0154834 -2.22881e-23)
(2.21898e-05 0.015569 1.14528e-21)
(2.2191e-05 0.0156519 -9.31076e-23)
(2.21286e-05 0.0157319 -7.09783e-22)
(2.20268e-05 0.0158088 -4.83323e-23)
(2.18779e-05 0.0158821 4.83252e-23)
(2.16964e-05 0.0159516 0)
(2.14786e-05 0.0160171 -7.47683e-22)
(2.12395e-05 0.0160784 -9.07016e-22)
(2.09852e-05 0.0161354 5.06154e-23)
(2.07133e-05 0.0161879 0)
(2.04174e-05 0.016236 1.75686e-21)
(2.01212e-05 0.0162794 -2.07918e-22)
(1.98009e-05 0.016318 -1.46352e-21)
(1.95039e-05 0.0163518 -2.09922e-22)
(1.91386e-05 0.0163809 1.05118e-22)
(1.87891e-05 0.0164046 1.05607e-22)
(1.83831e-05 0.0164236 -1.79529e-21)
(1.7947e-05 0.0164373 0)
(1.74515e-05 0.0164459 1.58089e-21)
(1.68879e-05 0.0164491 9.98142e-22)
(1.62247e-05 0.0164467 -1.04551e-22)
(1.54838e-05 0.0164383 -7.79585e-22)
(1.45992e-05 0.0164239 7.7392e-22)
(1.36041e-05 0.0164029 5.13082e-23)
(1.23716e-05 0.0163751 -8.08076e-22)
(1.09731e-05 0.0163397 2.39189e-21)
(9.43228e-06 0.0162976 0)
(7.54616e-06 0.0162485 0)
(5.6475e-06 0.0161933 7.56975e-22)
(3.19764e-06 0.0161344 -7.34983e-22)
(7.23745000004e-07 0.0160709 -5.72109e-24)
(-1.16776e-06 0.0160127 6.64162e-28)
(-1.72942e-06 0.0159669 -6.73861e-25)
(-1.16409e-05 0.0177954 0)
(-1.24519e-05 0.0177106 5.52114e-22)
(-1.64256e-05 0.0176575 0)
(-1.99839e-05 0.0175938 5.05528e-22)
(-2.32679e-05 0.0175388 1.92234e-21)
(-2.69835e-05 0.0174727 -9.12197e-22)
(-3.0217e-05 0.0173984 -8.78152e-22)
(-3.33212e-05 0.0173165 8.33674e-22)
(-3.61407e-05 0.0172255 7.87216e-22)
(-3.8551e-05 0.0171274 2.26708e-23)
(-4.05882e-05 0.0170234 -7.2751e-22)
(-4.22027e-05 0.0169148 -6.66205e-22)
(-4.34383e-05 0.0168028 -6.67918e-22)
(-4.42372e-05 0.0166891 3.82805e-23)
(-4.46593e-05 0.0165749 5.63434e-22)
(-4.46594e-05 0.0164612 5.34206e-22)
(-4.4343e-05 0.0163495 5.07353e-22)
(-4.36584e-05 0.0162403 -2.95257e-23)
(-4.27016e-05 0.0161351 2.95382e-23)
(-4.1486e-05 0.0160343 -4.70159e-22)
(-4.00309e-05 0.0159389 -3.99736e-22)
(-3.83919e-05 0.0158492 0)
(-3.65846e-05 0.0157656 0)
(-3.46435e-05 0.0156884 -1.97066e-22)
(-3.25702e-05 0.0156179 2.415e-23)
(-3.04014e-05 0.0155544 1.92216e-22)
(-2.81713e-05 0.0154979 -3.60201e-23)
(-2.58663e-05 0.0154485 -3.7264e-22)
(-2.35462e-05 0.0154063 -1.81704e-22)
(-2.11909e-05 0.0153713 -2.21111e-22)
(-1.88304e-05 0.0153435 -3.75116e-22)
(-1.64712e-05 0.0153229 -2.04251e-22)
(-1.41243e-05 0.0153095 -2.22855e-22)
(-1.17928e-05 0.0153031 2.298e-22)
(-9.48555e-06 0.0153037 -1.37268e-23)
(-7.19992e-06 0.0153111 -3.38798e-22)
(-4.96299e-06 0.0153251 -7.34432e-24)
(-2.75624e-06 0.0153458 1.24114e-22)
(-5.94491999997e-07 0.0153729 -2.49651e-22)
(1.52871e-06 0.0154063 1.25809e-22)
(3.58081e-06 0.0154456 6.97055e-23)
(5.57132e-06 0.0154908 -1.40368e-22)
(7.50523e-06 0.0155416 -9.42924e-24)
(9.34907e-06 0.0155979 4.80728e-24)
(1.1135e-05 0.0156595 -8.15024e-23)
(1.28262e-05 0.015726 8.4678e-23)
(1.44474e-05 0.0157973 4.39701e-23)
(1.60132e-05 0.0158733 0)
(1.75453e-05 0.0159535 3.58572e-23)
(1.90182e-05 0.0160376 -3.76281e-25)
(2.04165e-05 0.016125 -2.53644e-23)
(2.1736e-05 0.0162157 0)
(2.29788e-05 0.0163092 8.43245e-27)
(2.41345e-05 0.0164051 0)
(2.52045e-05 0.0165032 0)
(2.61798e-05 0.0166029 -2.37555e-22)
(2.70666e-05 0.0167039 -1.22194e-22)
(2.78597e-05 0.0168057 -1.25605e-22)
(2.85619e-05 0.0169081 -2.57882e-22)
(2.91582e-05 0.0170105 -2.47762e-22)
(2.96847e-05 0.0171126 -5.58772e-22)
(3.00983e-05 0.017214 -2.59888e-22)
(3.04337e-05 0.0173141 -5.66889e-22)
(3.06827e-05 0.0174126 -5.97397e-22)
(3.0826e-05 0.017509 -8.87086e-22)
(3.08969e-05 0.017603 -6.02917e-22)
(3.08876e-05 0.0176942 -6.14166e-22)
(3.08128e-05 0.0177822 3.93724e-23)
(3.06534e-05 0.0178665 1.23127e-21)
(3.04368e-05 0.017947 6.45268e-22)
(3.01571e-05 0.0180233 0)
(2.98327e-05 0.0180952 1.36869e-21)
(2.94634e-05 0.0181624 2.05722e-21)
(2.90628e-05 0.0182247 -8.4397e-23)
(2.8638e-05 0.0182821 -8.60879e-23)
(2.8188e-05 0.0183344 -1.72919e-22)
(2.77071e-05 0.0183813 -1.30803e-21)
(2.72165e-05 0.0184228 0)
(2.66947e-05 0.0184587 1.41326e-21)
(2.61799e-05 0.0184889 8.89379e-23)
(2.55923e-05 0.0185134 2.84812e-25)
(2.49969e-05 0.0185317 -1.78653e-22)
(2.43334e-05 0.0185442 1.5212e-21)
(2.36148e-05 0.0185504 1.52159e-21)
(2.2813e-05 0.0185504 -2.95084e-21)
(2.19135e-05 0.018544 -8.90452e-23)
(2.08847e-05 0.0185308 1.51094e-21)
(1.97394e-05 0.0185105 -1.41441e-21)
(1.84121e-05 0.0184831 0)
(1.69274e-05 0.0184481 -2.16407e-23)
(1.5167e-05 0.0184052 2.41796e-25)
(1.31833e-05 0.0183538 -1.33809e-21)
(1.10148e-05 0.0182949 0)
(8.46551e-06 0.0182285 1.31713e-21)
(5.84187e-06 0.0181558 -9.99622e-24)
(2.6899e-06 0.0180794 6.43052e-22)
(-5.50871999996e-07 0.0179992 0)
(-3.23005e-06 0.0179246 0)
(-4.6009e-06 0.0178619 5.75199e-25)
(-1.62935e-05 0.0193338 -1.21415e-22)
(-1.8141e-05 0.019235 7.77333e-26)
(-2.28765e-05 0.0191665 9.03701e-22)
(-2.7466e-05 0.0190888 -1.72844e-21)
(-3.15514e-05 0.019019 -8.22756e-22)
(-3.60672e-05 0.0189394 1.56359e-21)
(-4.00912e-05 0.0188524 7.4395e-22)
(-4.38647e-05 0.0187589 -1.40715e-21)
(-4.72851e-05 0.0186574 1.35182e-21)
(-5.01893e-05 0.0185501 -1.27862e-21)
(-5.26224e-05 0.0184381 -1.80627e-23)
(-5.45153e-05 0.0183228 5.21174e-23)
(-5.5928e-05 0.0182054 -3.40335e-23)
(-5.67978e-05 0.0180876 0)
(-5.71914e-05 0.0179704 9.74204e-22)
(-5.70747e-05 0.017855 -4.76524e-22)
(-5.65433e-05 0.0177425 -4.25147e-22)
(-5.55649e-05 0.0176335 -2.474e-23)
(-5.42302e-05 0.0175294 -7.25342e-22)
(-5.25736e-05 0.0174306 -2.36926e-23)
(-5.06168e-05 0.017338 3.57591e-22)
(-4.84276e-05 0.0172518 -3.46353e-22)
(-4.60261e-05 0.0171726 0)
(-4.34559e-05 0.0171004 0)
(-4.0723e-05 0.0170357 0)
(-3.78722e-05 0.0169784 0)
(-3.49406e-05 0.0169288 0)
(-3.19213e-05 0.0168868 3.42945e-22)
(-2.88783e-05 0.0168525 2.02684e-23)
(-2.57955e-05 0.0168259 1.65016e-22)
(-2.27062e-05 0.016807 1.78726e-22)
(-1.96191e-05 0.0167956 5.05277e-22)
(-1.65479e-05 0.0167917 1.76606e-22)
(-1.34988e-05 0.0167952 -3.63856e-22)
(-1.04829e-05 0.016806 0)
(-7.49916e-06 0.0168238 1.94589e-22)
(-4.57796e-06 0.0168485 -2.01792e-22)
(-1.70187e-06 0.01688 -2.09585e-22)
(1.11243e-06 0.0169181 1.15919e-22)
(3.87071e-06 0.0169625 -1.20329e-22)
(6.53791e-06 0.0170131 -7.52194e-24)
(9.12479e-06 0.0170696 7.55611e-24)
(1.16336e-05 0.0171317 1.27844e-22)
(1.40313e-05 0.0171994 -4.24001e-24)
(1.6352e-05 0.0172723 7.78707e-23)
(1.8559e-05 0.0173501 -7.63823e-23)
(2.06776e-05 0.0174327 0)
(2.27129e-05 0.0175197 1.23552e-24)
(2.46748e-05 0.0176107 -2.13773e-23)
(2.65452e-05 0.0177052 6.52299e-25)
(2.83136e-05 0.017803 4.23803e-27)
(2.99734e-05 0.0179036 2.8422e-24)
(3.15276e-05 0.0180068 4.63342e-23)
(3.2964e-05 0.0181121 -2.93752e-24)
(3.42835e-05 0.0182191 -6.24768e-24)
(3.5477e-05 0.0183274 1.07738e-22)
(3.65497e-05 0.0184366 1.177e-22)
(3.74983e-05 0.0185462 -1.32436e-23)
(3.83242e-05 0.0186558 2.34619e-22)
(3.90127e-05 0.0187651 2.12436e-22)
(3.96017e-05 0.0188735 6.96152e-22)
(4.00481e-05 0.0189806 0)
(4.03862e-05 0.019086 4.86182e-22)
(4.06108e-05 0.0191892 4.96839e-22)
(4.07025e-05 0.0192898 1.01441e-21)
(4.06961e-05 0.0193875 5.17342e-22)
(4.05855e-05 0.0194817 -5.27089e-22)
(4.03881e-05 0.0195723 0)
(4.00843e-05 0.0196587 -5.45771e-22)
(3.97047e-05 0.0197406 5.54451e-22)
(3.9248e-05 0.0198179 1.05433e-21)
(3.87343e-05 0.0198902 -2.20893e-21)
(3.81646e-05 0.0199574 -2.30714e-21)
(3.75523e-05 0.0200191 0)
(3.69043e-05 0.0200753 -1.25213e-21)
(3.62197e-05 0.0201258 -7.39852e-23)
(3.54944e-05 0.0201703 0)
(3.47469e-05 0.0202086 1.20741e-21)
(3.39594e-05 0.0202407 7.61138e-23)
(3.31587e-05 0.0202664 3.27387e-25)
(3.2281e-05 0.0202857 -7.64692e-23)
(3.13668e-05 0.020298 2.45842e-21)
(3.03716e-05 0.0203037 2.38521e-21)
(2.92925e-05 0.0203023 -1.0776e-21)
(2.8104e-05 0.0202939 1.15336e-21)
(2.67861e-05 0.0202781 7.65781e-23)
(2.5309e-05 0.0202548 -1.29953e-21)
(2.36749e-05 0.0202236 1.21666e-21)
(2.18225e-05 0.0201843 0)
(1.9766e-05 0.0201367 2.39573e-21)
(1.74018e-05 0.0200804 0)
(1.47607e-05 0.0200151 0)
(1.18956e-05 0.0199415 0)
(8.62768e-06 0.0198602 -1.12508e-21)
(5.22262e-06 0.0197722 -8.78157e-24)
(1.331e-06 0.0196805 8.41808e-24)
(-2.72635e-06 0.019585 -4.31855e-24)
(-6.25694e-06 0.0194946 -5.23362e-22)
(-8.55661e-06 0.0194156 -9.79256e-28)
(-2.20077e-05 0.0205993 1.05016e-22)
(-2.49896e-05 0.0204878 -4.08376e-22)
(-3.04882e-05 0.0204054 -7.8007e-22)
(-3.6117e-05 0.020315 1.48984e-21)
(-4.10136e-05 0.0202317 -5.40816e-24)
(-4.63112e-05 0.0201399 -1.33629e-21)
(-5.10975e-05 0.020042 1.27183e-21)
(-5.55026e-05 0.0199388 1.21481e-21)
(-5.94788e-05 0.0198291 -1.14901e-21)
(-6.28273e-05 0.019715 -2.96942e-25)
(-6.56012e-05 0.0195975 0)
(-6.77132e-05 0.0194781 -9.2969e-22)
(-6.92357e-05 0.0193579 -2.90908e-23)
(-7.01051e-05 0.0192386 -8.2857e-22)
(-7.03976e-05 0.0191211 -8.3389e-22)