/*--------------------------------*- C++ -*----------------------------------*\
| =========                 |                                                 |
| \\      /  F ield         | OpenFOAM: The Open Source CFD Toolbox           |
|  \\    /   O peration     | Version:  2006                                  |
|   \\  /    A nd           | Website:  www.openfoam.com                      |
|    \\/     M anipulation  |                                                 |
\*---------------------------------------------------------------------------*/
FoamFile
{
    version     2.0;
    format      ascii;
    class       volVectorField;
    location    "20000";
    object      U;
}
// * * * * * * * * * * * * * * * * * * * * * * * * * * * * * * * * * * * * * //

dimensions      [0 1 -1 0 0 0 0];


internalField   nonuniform List<vector> 
14751
(
(0.00158869 1.06907e-07 0)
(0.00158241 -5.93468e-08 0)
(0.00158323 1.08456e-07 -1.91588e-26)
(0.00157494 9.78683e-08 1.91701e-26)
(0.0015687 1.58358e-07 -3.52207e-26)
(0.00155739 1.96819e-07 5.86369e-25)
(0.00154429 2.23599e-07 0)
(0.00152917 2.59271e-07 -7.62195e-27)
(0.00151164 2.8298e-07 3.93091e-28)
(0.00149246 3.02955e-07 -6.47803e-27)
(0.00147176 3.15626e-07 7.38932e-28)
(0.00144979 3.25742e-07 8.22428e-25)
(0.00142671 3.29734e-07 0)
(0.00140304 3.28328e-07 -2.20552e-26)
(0.00137892 3.24491e-07 -6.64927e-25)
(0.00135467 3.12383e-07 -3.25897e-25)
(0.00133053 3.00936e-07 1.88957e-26)
(0.00130657 2.82163e-07 -1.89133e-26)
(0.0012831 2.64658e-07 -2.82207e-25)
(0.00126018 2.43827e-07 -2.70857e-25)
(0.00123806 2.23998e-07 0)
(0.00121671 2.04146e-07 -2.68516e-25)
(0.00119625 1.85691e-07 1.56068e-26)
(0.00117676 1.67942e-07 -1.496e-26)
(0.00115835 1.51681e-07 1.49717e-26)
(0.00114095 1.35818e-07 4.71107e-25)
(0.00112461 1.21943e-07 0)
(0.00110932 1.08281e-07 1.17725e-25)
(0.00109508 9.62955e-08 0)
(0.00108195 8.49692e-08 0)
(0.00106991 7.47203e-08 0)
(0.00105895 6.51923e-08 0)
(0.00104904 5.65805e-08 0)
(0.00104017 4.85664e-08 8.39245e-27)
(0.00103235 4.12117e-08 -8.39529e-27)
(0.00102551 3.40468e-08 2.91215e-25)
(0.00101961 2.78221e-08 -3.01445e-25)
(0.00101469 2.2009e-08 -3.03481e-25)
(0.00101072 1.65238e-08 0)
(0.00100765 1.05796e-08 0)
(0.00100542 5.29641e-09 2.71504e-27)
(0.00100409 1.88876e-09 -2.71517e-27)
(0.00100361 -2.36637e-09 -2.9363e-27)
(0.00100398 -5.23648e-09 2.9364e-27)
(0.00100518 -8.83628e-09 1.58609e-27)
(0.0010071 -1.18961e-08 1.58612e-27)
(0.00100975 -1.51863e-08 -8.54918e-28)
(0.00101311 -1.82347e-08 -2.22036e-25)
(0.0010172 -2.14024e-08 0)
(0.00102199 -2.40848e-08 2.37859e-28)
(0.00102745 -2.65488e-08 -2.37839e-28)
(0.00103358 -2.87716e-08 -5.08576e-28)
(0.00104036 -3.09506e-08 5.08523e-28)
(0.00104774 -3.29995e-08 1.08313e-27)
(0.0010557 -3.49892e-08 2.82622e-25)
(0.00106422 -3.64929e-08 -4.52883e-27)
(0.00107326 -3.81795e-08 2.29682e-27)
(0.00108281 -3.94238e-08 0)
(0.0010928 -4.05745e-08 0)
(0.00110326 -4.06114e-08 0)
(0.00111419 -4.15848e-08 -1.32152e-24)
(0.00112549 -4.10924e-08 -2.69386e-24)
(0.00113718 -4.23467e-08 -1.06807e-26)
(0.00114914 -4.36593e-08 -1.1138e-26)
(0.00116131 -4.37172e-08 -1.15736e-26)
(0.00117375 -4.38206e-08 7.79123e-25)
(0.00118642 -4.40559e-08 -7.69444e-25)
(0.00119926 -4.45954e-08 0)
(0.00121222 -4.46512e-08 2.42624e-26)
(0.00122535 -4.50126e-08 -2.42509e-26)
(0.00123859 -4.52703e-08 0)
(0.00125192 -4.61669e-08 0)
(0.00126535 -4.70192e-08 0)
(0.00127884 -4.83913e-08 0)
(0.00129239 -5.04028e-08 1.03426e-25)
(0.00130602 -5.31101e-08 -5.23485e-26)
(0.00131969 -5.58591e-08 -1.05427e-25)
(0.00133344 -6.06907e-08 1.05665e-25)
(0.00134722 -6.40854e-08 -1.0595e-25)
(0.00136112 -7.25137e-08 -5.32054e-26)
(0.0013751 -7.72138e-08 1.0698e-25)
(0.0013891 -8.75196e-08 0)
(0.00140327 -9.592e-08 0)
(0.00141745 -1.06802e-07 -5.35673e-26)
(0.0014317 -1.17271e-07 5.35191e-26)
(0.00144601 -1.28608e-07 0)
(0.00146031 -1.38149e-07 0)
(0.00147453 -1.49028e-07 0)
(0.00148859 -1.56595e-07 0)
(0.00150247 -1.67305e-07 -1.67231e-24)
(0.00151594 -1.70223e-07 1.28848e-26)
(0.00152877 -1.72664e-07 0)
(0.00154122 -1.75892e-07 1.23581e-26)
(0.00155235 -1.59768e-07 6.1348e-26)
(0.00156249 -1.64198e-07 -3.5676e-26)
(0.00157148 -1.42533e-07 1.18741e-26)
(0.00157738 -1.14097e-07 3.72432e-25)
(0.00157968 -4.04486e-08 -5.67499e-27)
(0.00158799 -1.85752e-07 -6.9537e-25)
(0.00471779 6.17146e-07 -3.10641e-23)
(0.00469901 4.48106e-08 0)
(0.00469684 6.69557e-07 -5.62616e-23)
(0.00467564 8.03276e-07 -1.78376e-24)
(0.00465882 1.0922e-06 1.04251e-22)
(0.00463064 1.39629e-06 1.70516e-24)
(0.00459766 1.57253e-06 7.89801e-25)
(0.00455949 1.79231e-06 0)
(0.00451522 1.96639e-06 -9.52933e-23)
(0.00446656 2.11299e-06 5.49159e-24)
(0.00441389 2.22835e-06 0)
(0.00435787 2.32331e-06 -1.20695e-24)
(0.00429893 2.38771e-06 0)
(0.00423831 2.42268e-06 0)
(0.0041764 2.44078e-06 5.92379e-23)
(0.00411404 2.42107e-06 8.5969e-24)
(0.00405184 2.40059e-06 -6.01739e-23)
(0.00399002 2.34687e-06 -1.40628e-23)
(0.0039294 2.29004e-06 1.45527e-23)
(0.00387013 2.2139e-06 4.1512e-25)
(0.0038129 2.12989e-06 6.31903e-24)
(0.00375765 2.03824e-06 -5.95291e-24)
(0.00370469 1.94144e-06 0)
(0.00365426 1.83893e-06 0)
(0.00360663 1.73341e-06 0)
(0.00356168 1.62351e-06 -7.3385e-25)
(0.00351954 1.51578e-06 4.10577e-23)
(0.00348024 1.40463e-06 5.28557e-23)
(0.00344378 1.2967e-06 0)
(0.0034103 1.18812e-06 -2.11266e-23)
(0.00337977 1.08206e-06 -2.7707e-23)
(0.00335217 9.77541e-07 2.5241e-23)
(0.00332746 8.75626e-07 0)
(0.00330562 7.75019e-07 -3.39458e-24)
(0.00328664 6.76954e-07 3.45355e-23)
(0.00327037 5.80992e-07 -5.78341e-24)
(0.00325674 4.88467e-07 2.28569e-24)
(0.00324582 3.97247e-07 1.58881e-23)
(0.00323755 3.0833e-07 0)
(0.00323179 2.20259e-07 0)
(0.0032284 1.35637e-07 -2.20963e-24)
(0.00322752 5.74081e-08 2.2107e-24)
(0.00322903 -2.10694e-08 -8.18357e-24)
(0.00323289 -9.36211e-08 -1.19598e-24)
(0.00323906 -1.65317e-07 0)
(0.00324724 -2.32258e-07 0)
(0.00325743 -2.99574e-07 0)
(0.00326958 -3.66108e-07 3.19104e-24)
(0.00328372 -4.32773e-07 0)
(0.00329981 -4.95891e-07 0)
(0.00331773 -5.56642e-07 4.00419e-25)
(0.00333747 -6.15591e-07 -4.00192e-25)
(0.00335897 -6.72093e-07 0)
(0.00338208 -7.26137e-07 6.93146e-24)
(0.00340675 -7.78119e-07 -1.47273e-23)
(0.00343287 -8.26214e-07 -1.86346e-24)
(0.00346036 -8.72912e-07 1.50518e-23)
(0.00348912 -9.15391e-07 1.91225e-24)
(0.00351901 -9.55424e-07 -2.77796e-23)
(0.00355006 -9.90769e-07 -4.02179e-24)
(0.0035822 -1.02608e-06 6.29974e-24)
(0.00361521 -1.05468e-06 4.89013e-26)
(0.00364908 -1.08568e-06 0)
(0.00368348 -1.11268e-06 8.95686e-24)
(0.00371828 -1.1339e-06 -8.9416e-24)
(0.00375356 -1.15377e-06 -1.14852e-24)
(0.0037892 -1.17128e-06 1.16715e-24)
(0.00382504 -1.18672e-06 0)
(0.00386094 -1.19846e-06 0)
(0.00389695 -1.20926e-06 7.78593e-23)
(0.00393294 -1.21716e-06 0)
(0.00396886 -1.22543e-06 -2.00183e-23)
(0.00400465 -1.23124e-06 1.99678e-23)
(0.00404024 -1.23715e-06 0)
(0.00407563 -1.24396e-06 -1.59363e-25)
(0.00411081 -1.25076e-06 0)
(0.00414571 -1.25586e-06 1.61118e-25)
(0.00418035 -1.26619e-06 0)
(0.0042147 -1.27064e-06 1.66207e-22)
(0.00424885 -1.2904e-06 0)
(0.00428281 -1.29221e-06 -1.62442e-25)
(0.00431636 -1.31212e-06 -1.66188e-22)
(0.00434985 -1.32173e-06 1.65825e-22)
(0.00438288 -1.33675e-06 -1.65251e-22)
(0.00441565 -1.34936e-06 0)
(0.00444804 -1.36163e-06 0)
(0.0044799 -1.36465e-06 0)
(0.00451103 -1.36984e-06 -1.60709e-22)
(0.00454127 -1.36067e-06 -1.58979e-22)
(0.00457046 -1.35579e-06 2.45324e-24)
(0.00459808 -1.31225e-06 4.80718e-24)
(0.00462364 -1.2666e-06 -4.78807e-24)
(0.00464748 -1.2133e-06 5.79382e-25)
(0.00466792 -1.08419e-06 -7.20408e-25)
(0.00468542 -1.01952e-06 -1.47734e-22)
(0.00469961 -7.96308e-07 4.4199e-24)
(0.00470642 -5.24919e-07 -1.36806e-22)
(0.00470815 -3.32883e-07 0)
(0.00472037 -7.4673e-07 1.00729e-24)
(0.00784384 1.59158e-06 8.97063e-23)
(0.00781208 6.16705e-07 1.78398e-24)
(0.00780479 1.81524e-06 6.11966e-23)
(0.00777625 2.2294e-06 2.19329e-22)
(0.00775433 2.88263e-06 -1.16979e-22)
(0.0077184 3.65116e-06 6.38794e-24)
(0.00767541 4.15319e-06 0)
(0.00762519 4.7401e-06 0)
(0.00756627 5.23915e-06 -2.73051e-22)
(0.00750084 5.66659e-06 1.07149e-23)
(0.00742944 6.02123e-06 2.9855e-22)
(0.00735305 6.314e-06 3.03651e-22)
(0.00727231 6.53583e-06 1.00666e-24)
(0.00718886 6.68228e-06 2.91771e-22)
(0.00710337 6.77503e-06 -3.42318e-22)
(0.00701695 6.77626e-06 1.59988e-23)
(0.00693056 6.7569e-06 -1.4949e-22)
(0.00684452 6.65544e-06 -2.92256e-23)
(0.00676004 6.53063e-06 0)
(0.0066774 6.35609e-06 -1.98423e-22)
(0.00659755 6.1495e-06 1.91704e-22)
(0.00652049 5.91771e-06 0)
(0.00644669 5.6644e-06 0)
(0.00637649 5.39233e-06 0)
(0.00631028 5.10327e-06 9.47932e-23)
(0.00624799 4.79889e-06 0)
(0.00618982 4.49369e-06 5.89736e-23)
(0.00613583 4.17525e-06 -5.92939e-23)
(0.00608607 3.86104e-06 8.40093e-23)
(0.00604072 3.54155e-06 2.43764e-23)
(0.00599978 3.225e-06 3.11688e-23)
(0.00596323 2.91027e-06 -3.18025e-23)
(0.00593103 2.59959e-06 -1.11526e-22)
(0.00590317 2.2907e-06 1.35328e-23)
(0.00587964 1.9873e-06 -3.4841e-23)
(0.00586027 1.68857e-06 -7.37164e-24)
(0.00584492 1.39797e-06 3.55622e-24)
(0.00583372 1.1101e-06 -1.17801e-23)
(0.00582658 8.28643e-07 0)
(0.00582331 5.50496e-07 3.37741e-23)
(0.00582375 2.82413e-07 4.48014e-24)
(0.00582801 2.63961e-08 -4.48195e-24)
(0.00583595 -2.26828e-07 9.50626e-24)
(0.00584749 -4.64448e-07 0)
(0.00586253 -6.96573e-07 -2.05432e-23)
(0.00588069 -9.14066e-07 1.359e-24)
(0.00590185 -1.1297e-06 -1.35835e-24)
(0.00592596 -1.34325e-06 -2.13934e-24)
(0.00595302 -1.55704e-06 5.21654e-24)
(0.00598301 -1.76188e-06 3.88042e-25)
(0.00601574 -1.9592e-06 -6.55904e-24)
(0.00605116 -2.14986e-06 0)
(0.00608916 -2.33235e-06 1.7224e-24)
(0.00612948 -2.50606e-06 -1.22563e-23)
(0.00617202 -2.67185e-06 1.79298e-23)
(0.00621659 -2.82597e-06 6.2922e-23)
(0.00626302 -2.97296e-06 -1.12357e-23)
(0.00631114 -3.10752e-06 -7.68715e-24)
(0.00636071 -3.23336e-06 4.00255e-23)
(0.0064117 -3.34572e-06 2.0256e-25)
(0.00646399 -3.45429e-06 1.33855e-22)
(0.0065172 -3.54484e-06 -1.36281e-22)
(0.00657123 -3.63321e-06 -2.61888e-23)
(0.00662567 -3.70934e-06 -1.24256e-22)
(0.00668026 -3.76934e-06 -1.44286e-22)
(0.00673504 -3.82333e-06 -1.6515e-22)
(0.00678977 -3.86781e-06 3.72157e-23)
(0.00684422 -3.90445e-06 -1.8715e-23)
(0.00689815 -3.92908e-06 3.05881e-22)
(0.00695155 -3.94857e-06 -3.84173e-23)
(0.00700423 -3.95865e-06 -7.81843e-23)
(0.00705606 -3.96609e-06 3.92205e-23)
(0.00710694 -3.96558e-06 -4.00235e-23)
(0.00715674 -3.96284e-06 8.01735e-23)
(0.00720544 -3.95943e-06 -4.01439e-23)
(0.00725301 -3.95308e-06 0)
(0.00729932 -3.94081e-06 3.25619e-22)
(0.00734436 -3.93653e-06 -6.53028e-22)
(0.00738813 -3.92068e-06 4.9053e-22)
(0.00743069 -3.93103e-06 6.54302e-22)
(0.00747208 -3.90485e-06 -8.18266e-23)
(0.00751199 -3.90968e-06 2.44537e-22)
(0.00755087 -3.89161e-06 -1.62545e-22)
(0.00758824 -3.8795e-06 8.08911e-22)
(0.00762435 -3.85749e-06 6.83373e-22)
(0.00765902 -3.8274e-06 -6.78375e-22)
(0.00769207 -3.77221e-06 0)
(0.00772322 -3.71355e-06 1.17514e-22)
(0.00775231 -3.61753e-06 1.93392e-22)
(0.00777905 -3.51582e-06 -5.90948e-22)
(0.00780283 -3.32678e-06 -6.19225e-22)
(0.00782298 -3.1174e-06 4.57605e-24)
(0.00783995 -2.8808e-06 -5.83112e-22)
(0.00785212 -2.49575e-06 0)
(0.00785989 -2.20739e-06 1.46884e-22)
(0.0078632 -1.59515e-06 -8.52031e-24)
(0.00785791 -9.52059e-07 1.29231e-22)
(0.00785015 -5.82422e-07 2.02002e-24)
(0.00785437 -1.17145e-06 1.93999e-24)
(0.0108742 3.07502e-06 -5.52237e-23)
(0.0108289 2.02305e-06 0)
(0.0108141 3.86246e-06 -4.14056e-22)
(0.0107803 4.80445e-06 -2.0586e-22)
(0.0107552 5.9724e-06 2.67118e-25)
(0.010716 7.37393e-06 7.439e-22)
(0.0106683 8.39492e-06 0)
(0.0106125 9.50943e-06 0)
(0.0105466 1.04923e-05 9.6901e-22)
(0.0104729 1.13378e-05 1.87297e-23)
(0.0103921 1.20518e-05 2.56522e-22)
(0.0103054 1.26376e-05 -2.77956e-22)
(0.0102136 1.3095e-05 5.47729e-22)
(0.0101185 1.34071e-05 -2.52455e-22)
(0.010021 1.36057e-05 2.40362e-22)
(0.00992241 1.36419e-05 -4.58402e-22)
(0.00982385 1.36124e-05 2.1891e-22)
(0.00972573 1.34375e-05 -4.44929e-22)
(0.00962952 1.31983e-05 2.57631e-23)
(0.00953557 1.28666e-05 2.17974e-22)
(0.00944496 1.2463e-05 -2.35033e-22)
(0.00935779 1.20053e-05 2.32351e-23)
(0.0092746 1.14986e-05 -2.21078e-23)
(0.00919578 1.09523e-05 2.22079e-23)
(0.00912178 1.03653e-05 -6.52575e-23)
(0.00905259 9.74692e-06 -2.17001e-23)
(0.00898847 9.11869e-06 -9.71831e-23)
(0.00892951 8.46234e-06 1.73656e-22)
(0.00887578 7.8091e-06 -1.0976e-22)
(0.00882747 7.14293e-06 -1.67263e-22)
(0.00878461 6.47855e-06 1.93439e-22)
(0.00874718 5.81602e-06 -1.15227e-23)
(0.00871517 5.15866e-06 9.57686e-23)
(0.00868853 4.50407e-06 0)
(0.00866726 3.85871e-06 1.02031e-22)
(0.00865119 3.22107e-06 6.7218e-24)
(0.00864018 2.59971e-06 2.47134e-25)
(0.00863432 1.98346e-06 9.95318e-23)
(0.00863351 1.37902e-06 1.25452e-22)
(0.00863759 7.81406e-07 -9.21529e-23)
(0.00864635 2.05177e-07 -4.07187e-24)
(0.00865988 -3.50579e-07 4.0708e-24)
(0.00867797 -8.9659e-07 0)
(0.00870054 -1.41136e-06 0)
(0.00872745 -1.91208e-06 1.86227e-23)
(0.00875823 -2.38098e-06 0)
(0.00879271 -2.83844e-06 -4.0092e-23)
(0.00883068 -3.28972e-06 0)
(0.00887216 -3.74299e-06 -5.3777e-24)
(0.00891718 -4.1811e-06 -1.73835e-25)
(0.00896549 -4.60181e-06 7.20979e-24)
(0.00901697 -5.00563e-06 -4.47491e-24)
(0.00907144 -5.39129e-06 3.01036e-24)
(0.00912858 -5.75612e-06 0)
(0.00918822 -6.10154e-06 6.58175e-24)
(0.00925008 -6.42175e-06 -6.66463e-23)
(0.0093139 -6.72283e-06 6.7459e-24)
(0.00937945 -6.99793e-06 0)
(0.00944641 -7.25192e-06 1.00425e-22)
(0.00951465 -7.47633e-06 1.17281e-22)
(0.00958394 -7.68885e-06 -1.05391e-22)
(0.00965384 -7.86474e-06 1.07236e-22)
(0.00972414 -8.028e-06 -2.50684e-22)
(0.00979436 -8.16623e-06 1.43287e-22)
(0.00986418 -8.27065e-06 1.29754e-22)
(0.0099335 -8.35946e-06 9.86189e-23)
(0.010002 -8.42621e-06 3.31812e-23)
(0.0100694 -8.47555e-06 -3.42313e-23)
(0.0101354 -8.49876e-06 3.44053e-22)
(0.0101999 -8.50888e-06 -5.91797e-22)
(0.0102626 -8.49949e-06 -3.54436e-23)
(0.0103234 -8.48082e-06 3.53417e-23)
(0.010382 -8.44607e-06 -7.21733e-23)
(0.0104384 -8.40432e-06 7.19594e-23)
(0.0104924 -8.35831e-06 -7.31759e-23)
(0.010544 -8.30463e-06 -7.29503e-23)
(0.0105931 -8.23883e-06 -9.57347e-22)
(0.0106396 -8.18103e-06 1.18183e-21)
(0.0106835 -8.10755e-06 -1.70375e-21)
(0.0107248 -8.06725e-06 -5.93273e-22)
(0.0107636 -7.97485e-06 -1.18648e-21)
(0.0107996 -7.91912e-06 -1.1851e-21)
(0.0108332 -7.82822e-06 1.18219e-21)
(0.010864 -7.73836e-06 -5.88906e-22)
(0.0108922 -7.6264e-06 5.85914e-22)
(0.0109176 -7.49206e-06 5.82162e-22)
(0.01094 -7.31134e-06 -1.15503e-21)
(0.0109591 -7.11212e-06 -1.14409e-21)
(0.0109748 -6.84414e-06 -3.52072e-23)
(0.0109868 -6.5462e-06 6.28241e-22)
(0.0109943 -6.10698e-06 5.15682e-22)
(0.0109968 -5.61049e-06 0)
(0.0109948 -5.05551e-06 1.59283e-21)
(0.0109872 -4.27629e-06 -7.03158e-24)
(0.0109742 -3.58522e-06 8.02919e-24)
(0.0109568 -2.43293e-06 7.66977e-24)
(0.0109317 -1.28085e-06 -7.65371e-24)
(0.0109077 -5.81211e-07 8.86453e-28)
(0.0108964 -1.06242e-06 -8.97138e-25)
(0.013615 5.17667e-06 -5.82713e-27)
(0.0135567 4.45466e-06 2.89794e-24)
(0.0135315 6.97667e-06 2.87442e-24)
(0.0134909 8.66351e-06 0)
(0.0134601 1.04666e-05 -6.72161e-22)
(0.0134161 1.26039e-05 -6.44196e-22)
(0.0133632 1.42958e-05 0)
(0.013302 1.60418e-05 0)
(0.0132303 1.76104e-05 -5.60814e-22)
(0.0131504 1.89605e-05 -5.4989e-22)
(0.0130631 2.01088e-05 -4.90901e-22)
(0.0129698 2.10438e-05 0)
(0.0128714 2.17766e-05 -9.14358e-22)
(0.0127697 2.22743e-05 0)
(0.0126658 2.25804e-05 -4.12358e-22)
(0.0125609 2.26423e-05 3.92352e-22)
(0.0124565 2.25696e-05 3.28353e-22)
(0.0123529 2.22805e-05 4.03223e-22)
(0.0122518 2.18683e-05 3.4265e-22)
(0.0121535 2.13124e-05 0)
(0.012059 2.0633e-05 3.1865e-22)
(0.0119687 1.98609e-05 0)
(0.011883 1.9004e-05 -3.01966e-22)
(0.0118024 1.80794e-05 -2.96365e-22)
(0.0117272 1.70846e-05 1.81931e-23)
(0.0116575 1.60383e-05 -1.22451e-25)
(0.0115936 1.49674e-05 -1.81559e-23)
(0.0115356 1.38516e-05 1.45586e-22)
(0.0114836 1.27347e-05 1.8484e-23)
(0.0114377 1.1596e-05 1.30539e-22)
(0.011398 1.04567e-05 -1.61483e-22)
(0.0113644 9.3193e-06 9.60888e-24)
(0.011337 8.189e-06 1.01165e-23)
(0.0113156 7.06474e-06 -1.01256e-23)
(0.0113002 5.95344e-06 -8.48151e-23)
(0.0112907 4.85213e-06 -1.75463e-22)
(0.011287 3.77605e-06 0)
(0.0112891 2.70993e-06 -1.00294e-22)
(0.0112969 1.66423e-06 -9.18826e-23)
(0.0113102 6.32487e-07 4.43589e-23)
(0.0113289 -3.63509e-07 6.47703e-24)
(0.0113529 -1.32806e-06 -6.99856e-24)
(0.0113821 -2.27077e-06 6.99196e-24)
(0.0114162 -3.16326e-06 0)
(0.0114551 -4.02872e-06 0)
(0.0114984 -4.83866e-06 0)
(0.0115459 -5.61526e-06 3.30775e-23)
(0.0115971 -6.3742e-06 0)
(0.0116521 -7.13863e-06 -1.83089e-23)
(0.0117108 -7.88261e-06 -5.63724e-25)
(0.0117731 -8.59383e-06 -1.20599e-24)
(0.0118387 -9.27213e-06 -1.28495e-24)
(0.0119074 -9.91727e-06 -2.64688e-24)
(0.0119789 -1.05238e-05 5.12347e-24)
(0.0120528 -1.10935e-05 8.57002e-23)
(0.0121289 -1.1619e-05 0)
(0.0122069 -1.21071e-05 1.14701e-23)
(0.0122864 -1.25507e-05 3.12103e-25)
(0.0123671 -1.29548e-05 -1.06904e-22)
(0.0124487 -1.33075e-05 -9.74264e-23)
(0.012531 -1.36343e-05 1.26005e-23)
(0.0126135 -1.39014e-05 1.31547e-23)
(0.0126958 -1.4139e-05 1.82083e-22)
(0.0127775 -1.43345e-05 -2.67458e-23)
(0.0128583 -1.44744e-05 2.66995e-23)
(0.0129378 -1.45839e-05 2.76874e-23)
(0.0130158 -1.46548e-05 -5.01991e-22)
(0.013092 -1.46952e-05 2.80832e-23)
(0.0131658 -1.46918e-05 -4.59702e-22)
(0.0132372 -1.46639e-05 4.07251e-22)
(0.0133059 -1.46037e-05 -7.89531e-25)
(0.0133717 -1.45241e-05 5.92588e-23)
(0.0134343 -1.44183e-05 0)
(0.0134935 -1.42979e-05 1.0346e-21)
(0.0135493 -1.41676e-05 -6.1053e-23)
(0.0136015 -1.40256e-05 0)
(0.0136501 -1.38665e-05 4.97429e-22)
(0.0136949 -1.37136e-05 -5.00011e-22)
(0.013736 -1.35413e-05 1.00397e-21)
(0.0137732 -1.34005e-05 0)
(0.0138067 -1.31975e-05 1.13481e-21)
(0.0138361 -1.30258e-05 1.00946e-21)
(0.0138618 -1.28081e-05 -1.13451e-21)
(0.0138834 -1.25794e-05 0)
(0.0139011 -1.23118e-05 -1.06611e-21)
(0.0139147 -1.20014e-05 -9.36413e-22)
(0.013924 -1.16194e-05 1.05486e-21)
(0.0139286 -1.11936e-05 1.90934e-21)
(0.0139284 -1.06624e-05 -9.46151e-22)
(0.013923 -1.00646e-05 -3.03138e-23)
(0.0139119 -9.27415e-06 9.53577e-22)
(0.0138945 -8.37494e-06 -9.46918e-22)
(0.0138713 -7.37681e-06 -9.16878e-22)
(0.0138418 -6.08595e-06 0)
(0.0138066 -4.8398e-06 -8.75013e-22)
(0.0137672 -3.05648e-06 -7.01363e-24)
(0.0137219 -1.2753e-06 -6.7024e-24)
(0.0136802 -4.91343e-08 -7.77465e-28)
(0.0136512 -1.26552e-07 -7.86697e-25)
(0.0159158 7.9794e-06 4.97556e-27)
(0.0158449 7.90751e-06 -4.99573e-27)
(0.0158067 1.11423e-05 3.1448e-22)
(0.0157561 1.37203e-05 5.90699e-22)
(0.0157149 1.62376e-05 -5.70131e-22)
(0.0156616 1.91553e-05 1.08977e-21)
(0.0155994 2.16003e-05 0)
(0.0155292 2.40213e-05 -9.89604e-22)
(0.0154488 2.62159e-05 -9.54996e-22)
(0.0153607 2.81008e-05 4.60701e-22)
(0.0152656 2.97024e-05 8.46536e-22)
(0.015165 3.09903e-05 8.2638e-22)
(0.0150598 3.19917e-05 1.11467e-21)
(0.014952 3.26606e-05 0)
(0.0148426 3.30489e-05 -3.40988e-22)
(0.0147329 3.31054e-05 -3.94412e-23)
(0.0146241 3.29407e-05 -2.68286e-22)
(0.014517 3.24845e-05 3.58716e-23)
(0.014413 3.18347e-05 -3.51103e-22)
(0.0143125 3.09852e-05 5.73878e-22)
(0.0142167 2.99554e-05 -2.60121e-22)
(0.0141257 2.87887e-05 3.10939e-23)
(0.01404 2.74964e-05 2.14523e-22)
(0.01396 2.61045e-05 4.51638e-22)
(0.0138861 2.46113e-05 2.98958e-23)
(0.0138184 2.30449e-05 -2.35284e-22)
(0.0137572 2.14362e-05 1.46795e-23)
(0.0137024 1.97669e-05 -2.50025e-22)
(0.0136543 1.80901e-05 2.37348e-22)
(0.0136128 1.63845e-05 1.51667e-23)
(0.013578 1.4676e-05 2.29762e-22)
(0.01355 1.29687e-05 0)
(0.0135286 1.12705e-05 0)
(0.0135137 9.58193e-06 -8.39391e-24)
(0.0135055 7.91108e-06 -2.7633e-25)
(0.0135036 6.25543e-06 2.81792e-22)
(0.0135081 4.6367e-06 8.97269e-24)
(0.0135188 3.03631e-06 -1.51526e-22)
(0.0135357 1.46679e-06 1.57314e-22)
(0.0135585 -7.82512e-08 0)
(0.0135871 -1.57051e-06 -7.95033e-23)
(0.0136213 -3.01737e-06 -5.41045e-24)
(0.013661 -4.42635e-06 -5.84678e-24)
(0.013706 -5.76504e-06 5.84245e-24)
(0.013756 -7.06163e-06 3.15305e-24)
(0.0138109 -8.28156e-06 -6.4224e-24)
(0.0138703 -9.45328e-06 -5.0017e-23)
(0.0139341 -1.05959e-05 -1.75843e-24)
(0.014002 -1.17282e-05 1.75908e-24)
(0.0140738 -1.28213e-05 4.71164e-25)
(0.0141491 -1.38625e-05 4.7084e-25)
(0.0142278 -1.485e-05 0)
(0.0143095 -1.5785e-05 -6.5386e-23)
(0.0143939 -1.6659e-05 0)
(0.0144806 -1.74741e-05 -6.94708e-23)
(0.0145693 -1.82216e-05 1.42969e-22)
(0.0146596 -1.89085e-05 0)
(0.0147512 -1.95282e-05 1.50941e-22)
(0.0148437 -2.0085e-05 -9.80293e-24)
(0.0149367 -2.05647e-05 9.79504e-24)
(0.0150298 -2.09993e-05 3.24936e-22)
(0.0151227 -2.13484e-05 3.32324e-22)
(0.015215 -2.1646e-05 0)
(0.0153061 -2.18812e-05 -2.18806e-23)
(0.0153956 -2.20365e-05 3.97547e-22)
(0.0154834 -2.21422e-05 -2.22881e-23)
(0.015569 -2.21898e-05 1.14528e-21)
(0.0156519 -2.2191e-05 -9.31076e-23)
(0.0157319 -2.21286e-05 -7.09783e-22)
(0.0158088 -2.20268e-05 -4.83323e-23)
(0.0158821 -2.18779e-05 4.83252e-23)
(0.0159516 -2.16964e-05 0)
(0.0160171 -2.14786e-05 -7.47683e-22)
(0.0160784 -2.12395e-05 -9.07016e-22)
(0.0161354 -2.09852e-05 5.06154e-23)
(0.0161879 -2.07133e-05 0)
(0.016236 -2.04174e-05 1.75686e-21)
(0.0162794 -2.01212e-05 -2.07918e-22)
(0.016318 -1.98009e-05 -1.46352e-21)
(0.0163518 -1.95039e-05 -2.09922e-22)
(0.0163809 -1.91386e-05 1.05118e-22)
(0.0164046 -1.87891e-05 1.05607e-22)
(0.0164236 -1.83831e-05 -1.79529e-21)
(0.0164373 -1.7947e-05 0)
(0.0164459 -1.74515e-05 1.58089e-21)
(0.0164491 -1.68879e-05 9.98142e-22)
(0.0164467 -1.62247e-05 -1.04551e-22)
(0.0164383 -1.54838e-05 -7.79585e-22)
(0.0164239 -1.45992e-05 7.7392e-22)
(0.0164029 -1.36041e-05 5.13082e-23)
(0.0163751 -1.23716e-05 -8.08076e-22)
(0.0163397 -1.09731e-05 2.39189e-21)
(0.0162976 -9.43228e-06 0)
(0.0162485 -7.54616e-06 0)
(0.0161933 -5.6475e-06 7.56975e-22)
(0.0161344 -3.19764e-06 -7.34983e-22)
(0.0160709 -7.23745e-07 -5.72109e-24)
(0.0160127 1.16776e-06 6.64162e-28)
(0.0159669 1.72942e-06 -6.73861e-25)
(0.0177954 1.16409e-05 0)
(0.0177106 1.24519e-05 5.52114e-22)
(0.0176575 1.64256e-05 0)
(0.0175938 1.99839e-05 5.05528e-22)
(0.0175388 2.32679e-05 1.92234e-21)
(0.0174727 2.69835e-05 -9.12197e-22)
(0.0173984 3.0217e-05 -8.78152e-22)
(0.0173165 3.33212e-05 8.33674e-22)
(0.0172255 3.61407e-05 7.87216e-22)
(0.0171274 3.8551e-05 2.26708e-23)
(0.0170234 4.05882e-05 -7.2751e-22)
(0.0169148 4.22027e-05 -6.66205e-22)
(0.0168028 4.34383e-05 -6.67918e-22)
(0.0166891 4.42372e-05 3.82805e-23)
(0.0165749 4.46593e-05 5.63434e-22)
(0.0164612 4.46594e-05 5.34206e-22)
(0.0163495 4.4343e-05 5.07353e-22)
(0.0162403 4.36584e-05 -2.95257e-23)
(0.0161351 4.27016e-05 2.95382e-23)
(0.0160343 4.1486e-05 -4.70159e-22)
(0.0159389 4.00309e-05 -3.99736e-22)
(0.0158492 3.83919e-05 0)
(0.0157656 3.65846e-05 0)
(0.0156884 3.46435e-05 -1.97066e-22)
(0.0156179 3.25702e-05 2.415e-23)
(0.0155544 3.04014e-05 1.92216e-22)
(0.0154979 2.81713e-05 -3.60201e-23)
(0.0154485 2.58663e-05 -3.7264e-22)
(0.0154063 2.35462e-05 -1.81704e-22)
(0.0153713 2.11909e-05 -2.21111e-22)
(0.0153435 1.88304e-05 -3.75116e-22)
(0.0153229 1.64712e-05 -2.04251e-22)
(0.0153095 1.41243e-05 -2.22855e-22)
(0.0153031 1.17928e-05 2.298e-22)
(0.0153037 9.48555e-06 -1.37268e-23)
(0.0153111 7.19992e-06 -3.38798e-22)
(0.0153251 4.96299e-06 -7.34432e-24)
(0.0153458 2.75624e-06 1.24114e-22)
(0.0153729 5.94492e-07 -2.49651e-22)
(0.0154063 -1.52871e-06 1.25809e-22)
(0.0154456 -3.58081e-06 6.97055e-23)
(0.0154908 -5.57132e-06 -1.40368e-22)
(0.0155416 -7.50523e-06 -9.42924e-24)
(0.0155979 -9.34907e-06 4.80728e-24)
(0.0156595 -1.1135e-05 -8.15024e-23)
(0.015726 -1.28262e-05 8.4678e-23)
(0.0157973 -1.44474e-05 4.39701e-23)
(0.0158733 -1.60132e-05 0)
(0.0159535 -1.75453e-05 3.58572e-23)
(0.0160376 -1.90182e-05 -3.76281e-25)
(0.016125 -2.04165e-05 -2.53644e-23)
(0.0162157 -2.1736e-05 0)
(0.0163092 -2.29788e-05 8.43245e-27)
(0.0164051 -2.41345e-05 0)
(0.0165032 -2.52045e-05 0)
(0.0166029 -2.61798e-05 -2.37555e-22)
(0.0167039 -2.70666e-05 -1.22194e-22)
(0.0168057 -2.78597e-05 -1.25605e-22)
(0.0169081 -2.85619e-05 -2.57882e-22)
(0.0170105 -2.91582e-05 -2.47762e-22)
(0.0171126 -2.96847e-05 -5.58772e-22)
(0.017214 -3.00983e-05 -2.59888e-22)
(0.0173141 -3.04337e-05 -5.66889e-22)
(0.0174126 -3.06827e-05 -5.97397e-22)
(0.017509 -3.0826e-05 -8.87086e-22)
(0.017603 -3.08969e-05 -6.02917e-22)
(0.0176942 -3.08876e-05 -6.14166e-22)
(0.0177822 -3.08128e-05 3.93724e-23)
(0.0178665 -3.06534e-05 1.23127e-21)
(0.017947 -3.04368e-05 6.45268e-22)
(0.0180233 -3.01571e-05 0)
(0.0180952 -2.98327e-05 1.36869e-21)
(0.0181624 -2.94634e-05 2.05722e-21)
(0.0182247 -2.90628e-05 -8.4397e-23)
(0.0182821 -2.8638e-05 -8.60879e-23)
(0.0183344 -2.8188e-05 -1.72919e-22)
(0.0183813 -2.77071e-05 -1.30803e-21)
(0.0184228 -2.72165e-05 0)
(0.0184587 -2.66947e-05 1.41326e-21)
(0.0184889 -2.61799e-05 8.89379e-23)
(0.0185134 -2.55923e-05 2.84812e-25)
(0.0185317 -2.49969e-05 -1.78653e-22)
(0.0185442 -2.43334e-05 1.5212e-21)
(0.0185504 -2.36148e-05 1.52159e-21)
(0.0185504 -2.2813e-05 -2.95084e-21)
(0.018544 -2.19135e-05 -8.90452e-23)
(0.0185308 -2.08847e-05 1.51094e-21)
(0.0185105 -1.97394e-05 -1.41441e-21)
(0.0184831 -1.84121e-05 0)
(0.0184481 -1.69274e-05 -2.16407e-23)
(0.0184052 -1.5167e-05 2.41796e-25)
(0.0183538 -1.31833e-05 -1.33809e-21)
(0.0182949 -1.10148e-05 0)
(0.0182285 -8.46551e-06 1.31713e-21)
(0.0181558 -5.84187e-06 -9.99622e-24)
(0.0180794 -2.6899e-06 6.43052e-22)
(0.0179992 5.50872e-07 0)
(0.0179246 3.23005e-06 0)
(0.0178619 4.6009e-06 5.75199e-25)
(0.0193338 1.62935e-05 -1.21415e-22)
(0.019235 1.8141e-05 7.77333e-26)
(0.0191665 2.28765e-05 9.03701e-22)
(0.0190888 2.7466e-05 -1.72844e-21)
(0.019019 3.15514e-05 -8.22756e-22)
(0.0189394 3.60672e-05 1.56359e-21)
(0.0188524 4.00912e-05 7.4395e-22)
(0.0187589 4.38647e-05 -1.40715e-21)
(0.0186574 4.72851e-05 1.35182e-21)
(0.0185501 5.01893e-05 -1.27862e-21)
(0.0184381 5.26224e-05 -1.80627e-23)
(0.0183228 5.45153e-05 5.21174e-23)
(0.0182054 5.5928e-05 -3.40335e-23)
(0.0180876 5.67978e-05 0)
(0.0179704 5.71914e-05 9.74204e-22)
(0.017855 5.70747e-05 -4.76524e-22)
(0.0177425 5.65433e-05 -4.25147e-22)
(0.0176335 5.55649e-05 -2.474e-23)
(0.0175294 5.42302e-05 -7.25342e-22)
(0.0174306 5.25736e-05 -2.36926e-23)
(0.017338 5.06168e-05 3.57591e-22)
(0.0172518 4.84276e-05 -3.46353e-22)
(0.0171726 4.60261e-05 0)
(0.0171004 4.34559e-05 0)
(0.0170357 4.0723e-05 0)
(0.0169784 3.78722e-05 0)
(0.0169288 3.49406e-05 0)
(0.0168868 3.19213e-05 3.42945e-22)
(0.0168525 2.88783e-05 2.02684e-23)
(0.0168259 2.57955e-05 1.65016e-22)
(0.016807 2.27062e-05 1.78726e-22)
(0.0167956 1.96191e-05 5.05277e-22)
(0.0167917 1.65479e-05 1.76606e-22)
(0.0167952 1.34988e-05 -3.63856e-22)
(0.016806 1.04829e-05 0)
(0.0168238 7.49916e-06 1.94589e-22)
(0.0168485 4.57796e-06 -2.01792e-22)
(0.01688 1.70187e-06 -2.09585e-22)
(0.0169181 -1.11243e-06 1.15919e-22)
(0.0169625 -3.87071e-06 -1.20329e-22)
(0.0170131 -6.53791e-06 -7.52194e-24)
(0.0170696 -9.12479e-06 7.55611e-24)
(0.0171317 -1.16336e-05 1.27844e-22)
(0.0171994 -1.40313e-05 -4.24001e-24)
(0.0172723 -1.6352e-05 7.78707e-23)
(0.0173501 -1.8559e-05 -7.63823e-23)
(0.0174327 -2.06776e-05 0)
(0.0175197 -2.27129e-05 1.23552e-24)
(0.0176107 -2.46748e-05 -2.13773e-23)
(0.0177052 -2.65452e-05 6.52299e-25)
(0.017803 -2.83136e-05 4.23803e-27)
(0.0179036 -2.99734e-05 2.8422e-24)
(0.0180068 -3.15276e-05 4.63342e-23)
(0.0181121 -3.2964e-05 -2.93752e-24)
(0.0182191 -3.42835e-05 -6.24768e-24)
(0.0183274 -3.5477e-05 1.07738e-22)
(0.0184366 -3.65497e-05 1.177e-22)
(0.0185462 -3.74983e-05 -1.32436e-23)
(0.0186558 -3.83242e-05 2.34619e-22)
(0.0187651 -3.90127e-05 2.12436e-22)
(0.0188735 -3.96017e-05 6.96152e-22)
(0.0189806 -4.00481e-05 0)
(0.019086 -4.03862e-05 4.86182e-22)
(0.0191892 -4.06108e-05 4.96839e-22)
(0.0192898 -4.07025e-05 1.01441e-21)
(0.0193875 -4.06961e-05 5.17342e-22)
(0.0194817 -4.05855e-05 -5.27089e-22)
(0.0195723 -4.03881e-05 0)
(0.0196587 -4.00843e-05 -5.45771e-22)
(0.0197406 -3.97047e-05 5.54451e-22)
(0.0198179 -3.9248e-05 1.05433e-21)
(0.0198902 -3.87343e-05 -2.20893e-21)
(0.0199574 -3.81646e-05 -2.30714e-21)
(0.0200191 -3.75523e-05 0)
(0.0200753 -3.69043e-05 -1.25213e-21)
(0.0201258 -3.62197e-05 -7.39852e-23)
(0.0201703 -3.54944e-05 0)
(0.0202086 -3.47469e-05 1.20741e-21)
(0.0202407 -3.39594e-05 7.61138e-23)
(0.0202664 -3.31587e-05 3.27387e-25)
(0.0202857 -3.2281e-05 -7.64692e-23)
(0.020298 -3.13668e-05 2.45842e-21)
(0.0203037 -3.03716e-05 2.38521e-21)
(0.0203023 -2.92925e-05 -1.0776e-21)
(0.0202939 -2.8104e-05 1.15336e-21)
(0.0202781 -2.67861e-05 7.65781e-23)
(0.0202548 -2.5309e-05 -1.29953e-21)
(0.0202236 -2.36749e-05 1.21666e-21)
(0.0201843 -2.18225e-05 0)
(0.0201367 -1.9766e-05 2.39573e-21)
(0.0200804 -1.74018e-05 0)
(0.0200151 -1.47607e-05 0)
(0.0199415 -1.18956e-05 0)
(0.0198602 -8.62768e-06 -1.12508e-21)
(0.0197722 -5.22262e-06 -8.78157e-24)
(0.0196805 -1.331e-06 8.41808e-24)
(0.019585 2.72635e-06 -4.31855e-24)
(0.0194946 6.25694e-06 -5.23362e-22)
(0.0194156 8.55661e-06 -9.79256e-28)
(0.0205993 2.20077e-05 1.05016e-22)
(0.0204878 2.49896e-05 -4.08376e-22)
(0.0204054 3.04882e-05 -7.8007e-22)
(0.020315 3.6117e-05 1.48984e-21)
(0.0202317 4.10136e-05 -5.40816e-24)
(0.0201399 4.63112e-05 -1.33629e-21)
(0.020042 5.10975e-05 1.27183e-21)
(0.0199388 5.55026e-05 1.21481e-21)
(0.0198291 5.94788e-05 -1.14901e-21)
(0.019715 6.28273e-05 -2.96942e-25)
(0.0195975 6.56012e-05 0)
(0.0194781 6.77132e-05 -9.2969e-22)
(0.0193579 6.92357e-05 -2.90908e-23)
(0.0192386 7.01051e-05 -8.2857e-22)
(0.0191211 7.03976e-05 -8.3389e-22)
(0.0190066 7.00942e-05 -4.6643e-23)
(0.0188961 6.92798e-05 7.73799e-22)
(0.0187899 6.79421e-05 -6.92763e-22)
(0.0186894 6.61639e-05 6.62172e-22)
(0.0185948 6.39951e-05 -6.35668e-22)
(0.0185073 6.14592e-05 6.12909e-22)
(0.0184269 5.8642e-05 2.96967e-22)
(0.018354 5.55684e-05 -5.96638e-22)
(0.0182889 5.22907e-05 3.31951e-25)
(0.0182316 4.88207e-05 1.76179e-23)
(0.0181824 4.52105e-05 0)
(0.0181412 4.15007e-05 0)
(0.018108 3.76917e-05 2.60591e-22)
(0.0180829 3.38505e-05 2.62928e-22)
(0.0180659 2.99663e-05 3.56348e-23)
(0.0180567 2.60761e-05 -1.79874e-23)
(0.0180554 2.21916e-05 -2.97229e-22)
(0.0180617 1.83293e-05 9.68222e-24)