/*--------------------------------*- C++ -*----------------------------------*\
| =========                 |                                                 |
| \\      /  F ield         | OpenFOAM: The Open Source CFD Toolbox           |
|  \\    /   O peration     | Version:  2006                                  |
|   \\  /    A nd           | Website:  www.openfoam.com                      |
|    \\/     M anipulation  |                                                 |
\*---------------------------------------------------------------------------*/
FoamFile
{
    version     2.0;
    format      ascii;
    class       surfaceScalarField;
    location    "20000";
    object      phi;
}
// * * * * * * * * * * * * * * * * * * * * * * * * * * * * * * * * * * * * * //

dimensions      [0 3 -1 0 0 0 0];
oriented        oriented;


internalField   nonuniform List<scalar> 
29254
(
-6.33222e-07
-3.21578e-09
-6.33721e-07
4.98811e-10
-6.31341e-07
-2.3796e-09
-6.28897e-07
-2.44433e-09
-6.25279e-07
-3.61781e-09
-6.20385e-07
-4.89457e-09
-6.14811e-07
-5.57406e-09
-6.08246e-07
-6.56464e-09
-6.00916e-07
-7.3297e-09
-5.92923e-07
-7.99362e-09
-5.844e-07
-8.52317e-09
-5.75334e-07
-9.06574e-09
-5.65932e-07
-9.40145e-09
-5.56353e-07
-9.57957e-09
-5.46628e-07
-9.72433e-09
-5.3696e-07
-9.66887e-09
-5.27307e-07
-9.65272e-09
-5.17827e-07
-9.48023e-09
-5.08524e-07
-9.30275e-09
-4.9954e-07
-8.9835e-09
-4.90858e-07
-8.68216e-09
-4.82516e-07
-8.34184e-09
-4.74536e-07
-7.98013e-09
-4.67003e-07
-7.53308e-09
-4.59887e-07
-7.11661e-09
-4.53165e-07
-6.7215e-09
-4.46867e-07
-6.29806e-09
-4.40965e-07
-5.90216e-09
-4.35496e-07
-5.46881e-09
-4.30466e-07
-5.02992e-09
-4.25868e-07
-4.59837e-09
-4.21697e-07
-4.17082e-09
-4.17945e-07
-3.75149e-09
-4.1461e-07
-3.33531e-09
-4.11684e-07
-2.92661e-09
-4.09119e-07
-2.56433e-09
-4.06943e-07
-2.17612e-09
-4.05149e-07
-1.79445e-09
-4.0373e-07
-1.41832e-09
-4.02628e-07
-1.102e-09
-4.0187e-07
-7.57927e-10
-4.01481e-07
-3.89348e-10
-4.01428e-07
-5.32394e-11
-4.0174e-07
3.12036e-10
-4.02358e-07
6.18619e-10
-4.03266e-07
9.07122e-10
-4.04463e-07
1.19703e-09
-4.05948e-07
1.48514e-09
-4.07721e-07
1.77301e-09
-4.09767e-07
2.04671e-09
-4.12078e-07
2.31075e-09
-4.14665e-07
2.58712e-09
-4.175e-07
2.83427e-09
-4.20571e-07
3.07179e-09
-4.23872e-07
3.3005e-09
-4.27387e-07
3.51463e-09
-4.31109e-07
3.72209e-09
-4.35021e-07
3.9128e-09
-4.39113e-07
4.09204e-09
-4.43426e-07
4.31254e-09
-4.47901e-07
4.47521e-09
-4.5255e-07
4.64898e-09
-4.57327e-07
4.77687e-09
-4.62166e-07
4.8394e-09
-4.67108e-07
4.94133e-09
-4.72143e-07
5.03516e-09
-4.77264e-07
5.12088e-09
-4.82424e-07
5.16003e-09
-4.87643e-07
5.2196e-09
-4.92917e-07
5.27335e-09
-4.9823e-07
5.31365e-09
-5.03584e-07
5.3539e-09
-5.08966e-07
5.38214e-09
-5.14375e-07
5.40889e-09
-5.19812e-07
5.43683e-09
-5.25274e-07
5.4615e-09
-5.30752e-07
5.47809e-09
-5.36266e-07
5.51371e-09
-5.41786e-07
5.5209e-09
-5.47378e-07
5.59206e-09
-5.52958e-07
5.57962e-09
-5.58605e-07
5.64691e-09
-5.64266e-07
5.66105e-09
-5.69944e-07
5.67818e-09
-5.75643e-07
5.69919e-09
-5.81358e-07
5.71481e-09
-5.87045e-07
5.68694e-09
-5.9268e-07
5.63488e-09
-5.98225e-07
5.54507e-09
-6.03669e-07
5.44388e-09
-6.08874e-07
5.2051e-09
-6.13922e-07
5.04788e-09
-6.18697e-07
4.77512e-09
-6.22861e-07
4.1641e-09
-6.26777e-07
3.91605e-09
-6.29737e-07
2.95935e-09
-6.316e-07
1.86294e-09
-6.32797e-07
1.19737e-09
3.6411e-09
-1.96522e-06
-1.20158e-08
-1.96598e-06
1.26389e-09
-1.96421e-06
-4.15671e-09
-1.96403e-06
-2.62467e-09
-1.96264e-06
-5.00697e-09
-1.95825e-06
-9.28194e-09
-1.95234e-06
-1.14845e-08
-1.94388e-06
-1.5025e-08
-1.93318e-06
-1.80302e-08
-1.92045e-06
-2.07205e-08
-1.90597e-06
-2.30099e-08
-1.88971e-06
-2.53215e-08
-1.87212e-06
-2.6995e-08
-1.85352e-06
-2.81726e-08
-1.83405e-06
-2.91963e-08
-1.8142e-06
-2.95235e-08
-1.79389e-06
-2.99571e-08
-1.77356e-06
-2.98097e-08
-1.75328e-06
-2.95879e-08
-1.73339e-06
-2.88672e-08
-1.71394e-06
-2.81333e-08
-1.69504e-06
-2.72431e-08
-1.67679e-06
-2.62362e-08
-1.65939e-06
-2.49336e-08
-1.64283e-06
-2.36712e-08
-1.62715e-06
-2.23985e-08
-1.61242e-06
-2.10299e-08
-1.59863e-06
-1.96989e-08
-1.58586e-06
-1.82343e-08
-1.57417e-06
-1.67183e-08
-1.56357e-06
-1.52034e-08
-1.55406e-06
-1.36801e-08
-1.54565e-06
-1.21625e-08
-1.53834e-06
-1.06385e-08
-1.53214e-06
-9.12951e-09
-1.52695e-06
-7.75296e-09
-1.52284e-06
-6.28805e-09
-1.51981e-06
-4.82877e-09
-1.51784e-06
-3.38751e-09
-1.51682e-06
-2.11656e-09
-1.51682e-06
-7.59674e-10
-1.51785e-06
6.38205e-10
-1.51985e-06
1.95355e-09
-1.52289e-06
3.34449e-09
-1.52681e-06
4.5448e-09
-1.53157e-06
5.66548e-09
-1.53716e-06
6.78494e-09
-1.54357e-06
7.89243e-09
-1.5508e-06
9.00298e-09
-1.55881e-06
1.00568e-08
-1.56756e-06
1.10636e-08
-1.57707e-06
1.20955e-08
-1.58725e-06
1.30128e-08
-1.59805e-06
1.38753e-08
-1.60944e-06
1.46893e-08
-1.62135e-06
1.54266e-08
-1.63375e-06
1.61183e-08
-1.64656e-06
1.67254e-08
-1.65974e-06
1.72708e-08
-1.67333e-06
1.79061e-08
-1.68719e-06
1.83344e-08
-1.70127e-06
1.873e-08
-1.71548e-06
1.89851e-08
-1.72964e-06
1.89969e-08
-1.74377e-06
1.90786e-08
-1.75784e-06
1.91041e-08
-1.77178e-06
1.90622e-08
-1.78547e-06
1.88414e-08
-1.79889e-06
1.86427e-08
-1.81202e-06
1.83995e-08
-1.82478e-06
1.80786e-08
-1.83716e-06
1.77324e-08
-1.84909e-06
1.73174e-08
-1.86056e-06
1.68791e-08
-1.87156e-06
1.64321e-08
-1.88205e-06
1.59567e-08
-1.89201e-06
1.54304e-08
-1.90146e-06
1.49658e-08
-1.91033e-06
1.43944e-08
-1.91879e-06
1.40508e-08
-1.92661e-06
1.33999e-08
-1.934e-06
1.30385e-08
-1.94085e-06
1.25116e-08
-1.9472e-06
1.20203e-08
-1.95305e-06
1.15578e-08
-1.95843e-06
1.10853e-08
-1.96322e-06
1.04769e-08
-1.96744e-06
9.85596e-09
-1.97101e-06
9.12254e-09
-1.97397e-06
8.40408e-09
-1.97599e-06
7.2204e-09
-1.9773e-06
6.3575e-09
-1.97788e-06
5.35642e-09
-1.97719e-06
3.47732e-09
-1.9763e-06
3.02574e-09
-1.9738e-06
4.60434e-10
-1.97074e-06
-1.2003e-09
-1.96913e-06
-4.15411e-10
8.53281e-09
-3.41284e-06
-2.79083e-08
-3.41483e-06
3.25555e-09
-3.41891e-06
-7.76207e-11
-3.42925e-06
7.7126e-09
-3.44052e-06
6.26176e-09
-3.44822e-06
-1.58181e-09
-3.45438e-06
-5.32185e-09
-3.45707e-06
-1.23378e-08
-3.45637e-06
-1.87338e-08
-3.45245e-06
-2.4635e-08
-3.44562e-06
-2.98413e-08
-3.43577e-06
-3.51721e-08
-3.42344e-06
-3.93224e-08
-3.40906e-06
-4.25515e-08
-3.39276e-06
-4.54955e-08
-3.37528e-06
-4.70111e-08
-3.35645e-06
-4.87801e-08
-3.33696e-06
-4.92978e-08
-3.31694e-06
-4.96165e-08
-3.2969e-06
-4.89001e-08
-3.27696e-06
-4.80757e-08
-3.2573e-06
-4.69057e-08
-3.23808e-06
-4.54518e-08
-3.21963e-06
-4.33816e-08
-3.20199e-06
-4.13117e-08
-3.18529e-06
-3.91038e-08
-3.16964e-06
-3.66825e-08
-3.15508e-06
-3.42551e-08
-3.14178e-06
-3.15317e-08
-3.12985e-06
-2.86496e-08
-3.11933e-06
-2.57211e-08
-3.11028e-06
-2.27297e-08
-3.10274e-06
-1.97096e-08
-3.09674e-06
-1.66371e-08
-3.0923e-06
-1.35665e-08
-3.08933e-06
-1.07214e-08
-3.08794e-06
-7.68006e-09
-3.08815e-06
-4.62327e-09
-3.08995e-06
-1.5857e-09
-3.09322e-06
1.15119e-09
-3.09804e-06
4.06522e-09
-3.10441e-06
7.00804e-09
-3.11227e-06
9.81768e-09
-3.12168e-06
1.27534e-08
-3.13245e-06
1.5313e-08
-3.14446e-06
1.76785e-08
-3.1577e-06
2.00162e-08
-3.17212e-06
2.23154e-08
-3.18775e-06
2.463e-08
-3.20451e-06
2.68181e-08
-3.22233e-06
2.88849e-08
-3.24119e-06
3.09607e-08
-3.26095e-06
3.27729e-08
-3.28151e-06
3.44286e-08
-3.30276e-06
3.59428e-08
-3.32458e-06
3.72468e-08
-3.34687e-06
3.84077e-08
-3.36948e-06
3.93385e-08
-3.3923e-06
4.00903e-08
-3.41533e-06
4.09344e-08
-3.43831e-06
4.13173e-08
-3.4611e-06
4.15158e-08
-3.48354e-06
4.1427e-08
-3.50534e-06
4.0791e-08
-3.52645e-06
4.01922e-08
-3.54675e-06
3.94089e-08
-3.56611e-06
3.84177e-08
-3.58428e-06
3.70113e-08
-3.60121e-06
3.55697e-08
-3.61679e-06
3.39833e-08
-3.6309e-06
3.21832e-08
-3.64345e-06
3.02864e-08
-3.65434e-06
2.82067e-08
-3.66351e-06
2.6052e-08
-3.67095e-06
2.38658e-08
-3.67659e-06
2.16062e-08
-3.68037e-06
1.92079e-08
-3.68236e-06
1.69528e-08
-3.68243e-06
1.4464e-08
-3.68088e-06
1.25045e-08
-3.67736e-06
9.8812e-09
-3.67226e-06
7.93152e-09
-3.66545e-06
5.6999e-09
-3.65705e-06
3.62682e-09
-3.64717e-06
1.67994e-09
-3.63587e-06
-2.1893e-10
-3.62306e-06
-2.33379e-09
-3.60889e-06
-4.30873e-09
-3.59334e-06
-6.42741e-09
-3.57657e-06
-8.36673e-09
-3.55817e-06
-1.11833e-08
-3.53868e-06
-1.31335e-08
-3.51851e-06
-1.48164e-08
-3.49721e-06
-1.78152e-08
-3.47692e-06
-1.72723e-08
-3.45614e-06
-2.0315e-08
-3.43834e-06
-1.89987e-08
-3.42704e-06
-1.17158e-08
1.02266e-08
-4.94116e-06
-5.23271e-08
-4.94479e-06
6.88197e-09
-4.95712e-06
1.2252e-08
-4.98245e-06
3.3041e-08
-5.01221e-06
3.60312e-08
-5.03894e-06
2.514e-08
-5.06494e-06
2.06771e-08
-5.08723e-06
9.96046e-09
-5.10556e-06
-4.09893e-10
-5.11996e-06
-1.02328e-08
-5.13072e-06
-1.90861e-08
-5.13765e-06
-2.82388e-08
-5.14122e-06
-3.57502e-08
-5.14186e-06
-4.19128e-08
-5.13965e-06
-4.77049e-08
-5.13546e-06
-5.12012e-08
-5.12903e-06
-5.52144e-08
-5.12123e-06
-5.70966e-08
-5.11218e-06
-5.86588e-08
-5.10252e-06
-5.8561e-08
-5.09241e-06
-5.81861e-08
-5.08209e-06
-5.72302e-08
-5.07175e-06
-5.57938e-08
-5.06171e-06
-5.34147e-08
-5.05216e-06
-5.08685e-08
-5.04331e-06
-4.79553e-08
-5.03529e-06
-4.4702e-08
-5.02826e-06
-4.12808e-08
-5.02239e-06
-3.73996e-08
-5.01784e-06
-3.31988e-08
-5.01471e-06
-2.88556e-08
-5.01309e-06
-2.43466e-08
-5.01306e-06
-1.97395e-08
-5.0147e-06
-1.4996e-08
-5.01806e-06
-1.02083e-08
-5.0231e-06
-5.68251e-09
-5.02992e-06
-8.56441e-10
-5.03858e-06
4.0335e-09
-5.0491e-06
8.9294e-09
-5.06142e-06
1.3472e-08
-5.07557e-06
1.82161e-08
-5.0915e-06
2.29417e-08
-5.10919e-06
2.7511e-08
-5.12863e-06
3.21933e-08
-5.14966e-06
3.6337e-08
-5.1721e-06
4.012e-08
-5.19588e-06
4.37987e-08
-5.22093e-06
4.7365e-08
-5.24728e-06
5.09815e-08
-5.27485e-06
5.43835e-08
-5.3035e-06
5.7538e-08
-5.33317e-06
6.0631e-08
-5.36365e-06
6.32501e-08
-5.39477e-06
6.55469e-08
-5.42637e-06
6.75413e-08
-5.45822e-06
6.9103e-08
-5.49017e-06
7.03524e-08
-5.52196e-06
7.11353e-08
-5.55341e-06
7.15331e-08
-5.58435e-06
7.18787e-08
-5.6145e-06
7.14635e-08
-5.64355e-06
7.05655e-08
-5.67129e-06
6.91751e-08
-5.69742e-06
6.69183e-08
-5.72172e-06
6.44917e-08
-5.74396e-06
6.16483e-08
-5.7639e-06
5.83611e-08
-5.78125e-06
5.43596e-08
-5.79583e-06
5.01467e-08
-5.80747e-06
4.56224e-08
-5.81596e-06
4.06699e-08
-5.82117e-06
3.55057e-08
-5.82296e-06
2.99874e-08
-5.82122e-06
2.43196e-08
-5.81596e-06
1.85999e-08
-5.80711e-06
1.27597e-08
-5.79456e-06
6.65791e-09
-5.77844e-06
8.34555e-10
-5.7586e-06
-5.38156e-09
-5.73551e-06
-1.05782e-08
-5.70872e-06
-1.69143e-08
-5.67882e-06
-2.1964e-08
-5.64575e-06
-2.73738e-08
-5.60979e-06
-3.23283e-08
-5.57116e-06
-3.69551e-08
-5.53002e-06
-4.13627e-08
-5.48636e-06
-4.59912e-08
-5.4406e-06
-5.00646e-08
-5.39278e-06
-5.42508e-08
-5.3433e-06
-5.78413e-08
-5.29177e-06
-6.27213e-08
-5.23903e-06
-6.58704e-08
-5.18623e-06
-6.76117e-08
-5.1332e-06
-7.08467e-08
-5.08343e-06
-6.70433e-08
-5.03577e-06
-6.79807e-08
-4.99647e-06
-5.82982e-08
-4.97017e-06
-3.80078e-08
5.63231e-09
-6.45984e-06
-8.60335e-08
-6.46491e-06
1.19516e-08
-6.48569e-06
3.30269e-08
-6.52615e-06
7.35098e-08
-6.57495e-06
8.48306e-08
-6.62195e-06
7.21376e-08
-6.66957e-06
6.82936e-08
-6.71387e-06
5.42645e-08
-6.75417e-06
3.98902e-08
-6.79036e-06
2.59586e-08
-6.82264e-06
1.31955e-08
-6.85064e-06
-2.41505e-10
-6.87479e-06
-1.16018e-08
-6.89551e-06
-2.11916e-08
-6.91276e-06
-3.04562e-08
-6.92752e-06
-3.64399e-08
-6.93935e-06
-4.33875e-08
-6.94928e-06
-4.7169e-08
-6.95739e-06
-5.05484e-08
-6.96437e-06
-5.1575e-08
-6.9704e-06
-5.21549e-08
-6.97572e-06
-5.19116e-08
-6.98052e-06
-5.09937e-08
-6.98516e-06
-4.87777e-08
-6.98983e-06
-4.61951e-08
-6.99482e-06
-4.29701e-08
-7.00026e-06
-3.92579e-08
-7.00637e-06
-3.51722e-08
-7.01334e-06
-3.04259e-08
-7.02138e-06
-2.51677e-08
-7.0306e-06
-1.96334e-08
-7.04115e-06
-1.37896e-08
-7.05314e-06
-7.75202e-09
-7.06667e-06
-1.47328e-09
-7.0818e-06
4.92965e-09
-7.09856e-06
1.10783e-08
-7.11709e-06
1.76675e-08
-7.13744e-06
2.43864e-08
-7.15967e-06
3.11598e-08
-7.18374e-06
3.75428e-08
-7.20968e-06
4.41548e-08
-7.23741e-06
5.06733e-08
-7.26692e-06
5.70203e-08
-7.29819e-06
6.34605e-08
-7.33105e-06
6.91996e-08
-7.36532e-06
7.43914e-08
-7.40085e-06
7.93231e-08
-7.43746e-06
8.39741e-08
-7.4752e-06
8.8721e-08
-7.51398e-06
9.31639e-08
-7.55362e-06
9.71829e-08
-7.594e-06
1.01015e-07
-7.63486e-06
1.04104e-07
-7.67595e-06
1.06633e-07
-7.71704e-06
1.08637e-07
-7.75784e-06
1.09904e-07
-7.7981e-06
1.10615e-07
-7.8375e-06
1.10535e-07
-7.87575e-06
1.09775e-07
-7.91259e-06
1.08727e-07
-7.94765e-06
1.06519e-07
-7.98051e-06
1.0343e-07
-8.0109e-06
9.95638e-08
-8.03841e-06
9.44303e-08
-8.06274e-06
8.88219e-08
-8.08356e-06
8.24657e-08
-8.10054e-06
7.53432e-08
-8.1133e-06
6.71183e-08
-8.12159e-06
5.84292e-08
-8.12516e-06
4.91927e-08
-8.12373e-06
3.92488e-08
-8.11717e-06
2.89382e-08
-8.10523e-06
1.80521e-08
-8.08784e-06
6.92498e-09
-8.06497e-06
-4.27042e-09
-8.0366e-06
-1.56083e-08
-8.00261e-06
-2.73263e-08
-7.96321e-06
-3.85748e-08
-7.91818e-06
-5.04054e-08
-7.86821e-06
-6.05542e-08
-7.81271e-06
-7.2412e-08
-7.75253e-06
-8.21454e-08
-7.68764e-06
-9.22594e-08
-7.61852e-06
-1.0145e-07
-7.5455e-06
-1.09974e-07
-7.4689e-06
-1.17966e-07
-7.3888e-06
-1.26084e-07
-7.30589e-06
-1.32981e-07
-7.22031e-06
-1.39824e-07
-7.13276e-06
-1.45397e-07
-7.04289e-06
-1.52586e-07
-6.95205e-06
-1.56714e-07
-6.86207e-06
-1.57596e-07
-6.77316e-06
-1.59755e-07
-6.69028e-06
-1.49917e-07
-6.61281e-06
-1.4545e-07
-6.54952e-06
-1.21596e-07
-6.5061e-06
-8.1422e-08
-6.92315e-09
-7.88329e-06
-1.29458e-07
-7.88916e-06
1.78248e-08
-7.91704e-06
6.0905e-08
-7.96967e-06
1.26137e-07
-8.03409e-06
1.4925e-07
-8.0983e-06
1.36346e-07
-8.16461e-06
1.34602e-07
-8.22829e-06
1.1795e-07
-8.28832e-06
9.99152e-08
-8.34446e-06
8.21038e-08
-8.39681e-06
6.55405e-08
-8.44491e-06
4.78579e-08
-8.48906e-06
3.25562e-08
-8.52963e-06
1.93798e-08
-8.56644e-06
6.34535e-09
-8.60046e-06
-2.41281e-09
-8.63115e-06
-1.26979e-08
-8.65964e-06
-1.86816e-08
-8.68596e-06
-2.4231e-08
-8.71078e-06
-2.67567e-08
-8.7343e-06
-2.86321e-08
-8.75675e-06
-2.94631e-08
-8.77829e-06
-2.94467e-08
-8.79928e-06
-2.77966e-08
-8.81992e-06
-2.55554e-08
-8.84051e-06
-2.23734e-08
-8.86122e-06
-1.8549e-08
-8.88233e-06
-1.40675e-08
-8.90399e-06
-8.76511e-09
-8.92641e-06
-2.74824e-09
-8.94974e-06
3.69636e-09
-8.97416e-06
1.06354e-08
-8.99981e-06
1.78983e-08
-9.02682e-06
2.55334e-08
-9.05528e-06
3.33936e-08
-9.08527e-06
4.10687e-08
-9.11692e-06
4.93188e-08
-9.1503e-06
5.77598e-08
-9.18544e-06
6.6308e-08
-9.22237e-06
7.44707e-08
-9.26107e-06
8.28547e-08
-9.30146e-06
9.10559e-08
-9.3435e-06
9.90653e-08
-9.38714e-06
1.07095e-07
-9.43227e-06
1.14331e-07
-9.47876e-06
1.20882e-07
-9.52653e-06
1.27093e-07
-9.57538e-06
1.3283e-07
-9.62519e-06
1.38524e-07
-9.67572e-06
1.43693e-07
-9.72675e-06
1.48215e-07
-9.77809e-06
1.52359e-07
-9.82943e-06
1.5544e-07
-9.88046e-06
1.57667e-07
-9.93091e-06
1.59081e-07
-9.98037e-06
1.59373e-07
-1.00286e-05
1.58807e-07
-1.00751e-05
1.57037e-07
-1.01195e-05
1.54213e-07
-1.01615e-05
1.5071e-07
-1.02006e-05
1.4563e-07
-1.02364e-05
1.39189e-07
-1.02684e-05
1.31611e-07
-1.02963e-05
1.22333e-07
-1.03196e-05
1.12152e-07
-1.0338e-05
1.00801e-07
-1.03509e-05
8.82876e-08
-1.03581e-05
7.42528e-08
-1.0359e-05
5.93925e-08
-1.03535e-05
4.36939e-08
-1.03412e-05
2.69463e-08
-1.03219e-05
9.65377e-09
-1.02954e-05
-8.46677e-09
-1.02616e-05
-2.69111e-08
-1.02204e-05
-4.54113e-08
-1.0172e-05
-6.40732e-08
-1.01161e-05
-8.32461e-08
-1.00529e-05
-1.01689e-07
-9.9824e-06
-1.2094e-07
-9.90525e-06
-1.37712e-07
-9.82083e-06
-1.56829e-07
-9.73018e-06
-1.72798e-07
-9.63334e-06
-1.89099e-07
-9.53095e-06
-2.03841e-07
-9.42346e-06
-2.17459e-07
-9.31134e-06
-2.30091e-07
-9.19479e-06
-2.42633e-07
-9.07474e-06
-2.53024e-07
-8.95151e-06
-2.63059e-07
-8.826e-06
-2.70905e-07
-8.69803e-06
-2.80555e-07
-8.56934e-06
-2.85404e-07
-8.44248e-06
-2.84455e-07
-8.31812e-06
-2.84114e-07
-8.20257e-06
-2.65472e-07
-8.09576e-06
-2.52257e-07
-8.00863e-06
-2.08729e-07
-7.94798e-06
-1.42069e-07
-2.8189e-08
-9.19909e-06
-1.83314e-07
-9.20418e-06
2.29119e-08
-9.23687e-06
9.35984e-08
-9.29811e-06
1.87372e-07
-9.37414e-06
2.2528e-07
-9.45176e-06
2.13964e-07
-9.53297e-06
2.15819e-07
-9.61243e-06
1.97412e-07
-9.68882e-06
1.763e-07
-9.76182e-06
1.55106e-07
-9.83143e-06
1.35149e-07
-9.89714e-06
1.13565e-07
-9.95914e-06
9.45628e-08
-1.00177e-05
7.7945e-08
-1.00725e-05
6.1171e-08
-1.01246e-05
4.96634e-08
-1.01732e-05
3.59215e-08
-1.02196e-05
2.76503e-08
-1.02636e-05
1.98126e-08
-1.0306e-05
1.56631e-08
-1.0347e-05
1.23534e-08
-1.03868e-05
1.02905e-08
-1.04254e-05
9.20575e-09
-1.04633e-05
1.00692e-08
-1.05006e-05
1.17481e-08
-1.05376e-05
1.4671e-08
-1.05746e-05
1.83816e-08
-1.06117e-05
2.30609e-08
-1.06492e-05
2.87085e-08
-1.06872e-05
3.52738e-08
-1.07259e-05
4.24341e-08
-1.07656e-05
5.02903e-08
-1.08063e-05
5.86088e-08
-1.08482e-05
6.7451e-08
-1.08914e-05
7.66228e-08
-1.09361e-05
8.56918e-08
-1.09822e-05
9.54528e-08
-1.10299e-05
1.05467e-07
-1.10792e-05
1.15639e-07
-1.11302e-05
1.25442e-07
-1.11828e-05
1.35451e-07
-1.12369e-05
1.45163e-07
-1.12925e-05
1.54667e-07
-1.13495e-05
1.6409e-07
-1.14078e-05
1.72656e-07
-1.14674e-05
1.80419e-07
-1.15281e-05
1.87801e-07
-1.15897e-05
1.94453e-07
-1.1652e-05
2.00787e-07
-1.17145e-05
2.06273e-07
-1.17772e-05
2.10842e-07
-1.18396e-05
2.14776e-07
-1.19014e-05
2.17279e-07
-1.19623e-05
2.18575e-07
-1.2022e-05
2.18714e-07
-1.20799e-05
2.17276e-07
-1.21357e-05
2.14612e-07
-1.21889e-05
2.10258e-07
-1.22391e-05
2.04404e-07
-1.22857e-05
1.97376e-07
-1.23284e-05
1.88303e-07
-1.23666e-05
1.77319e-07
-1.23997e-05
1.64779e-07
-1.24274e-05
1.50052e-07
-1.24492e-05
1.33911e-07
-1.24645e-05
1.16099e-07
-1.24729e-05
9.66773e-08
-1.24739e-05
7.52649e-08
-1.24671e-05
5.2597e-08
-1.24522e-05
2.87556e-08
-1.24287e-05
3.49169e-09
-1.23966e-05
-2.24994e-08
-1.23555e-05
-4.95645e-08
-1.23053e-05
-7.70442e-08
-1.22462e-05
-1.04574e-07
-1.2178e-05
-1.32286e-07
-1.21005e-05
-1.60653e-07
-1.20142e-05
-1.87995e-07
-1.19188e-05
-2.16365e-07
-1.18152e-05
-2.41354e-07
-1.17027e-05
-2.69346e-07
-1.15824e-05
-2.93019e-07
-1.14546e-05
-3.16905e-07
-1.132e-05
-3.38449e-07
-1.11792e-05
-3.58286e-07
-1.10327e-05
-3.76553e-07
-1.0881e-05
-3.94363e-07
-1.07252e-05
-4.08866e-07
-1.05657e-05
-4.22548e-07
-1.04037e-05
-4.32881e-07
-1.02392e-05
-4.45038e-07
-1.00744e-05
-4.50261e-07
-9.91229e-06
-4.46521e-07
-9.75417e-06
-4.42232e-07
-9.6074e-06
-4.12241e-07
-9.47248e-06
-3.87179e-07
-9.36196e-06
-3.19254e-07
-9.28381e-06
-2.20212e-07
-5.90528e-08
-1.04285e-05
-2.47776e-07
-1.04324e-05
2.68049e-08
-1.0469e-05
1.30251e-07
-1.05358e-05
2.54149e-07
-1.06201e-05
3.09551e-07
-1.07082e-05
3.02042e-07
-1.08014e-05
3.09019e-07
-1.0894e-05
2.90049e-07
-1.09844e-05
2.66672e-07
-1.10721e-05
2.42878e-07
-1.11571e-05
2.20141e-07
-1.12388e-05
1.95262e-07
-1.13173e-05
1.7303e-07
-1.13928e-05
1.53414e-07
-1.14648e-05
1.33206e-07
-1.15343e-05
1.19163e-07
-1.16004e-05
1.0207e-07
-1.16644e-05
9.15855e-08
-1.17261e-05
8.14944e-08
-1.17861e-05
7.57297e-08
-1.18448e-05
7.10134e-08
-1.19022e-05
6.77018e-08
-1.19585e-05
6.54707e-08
-1.20139e-05
6.54616e-08
-1.20686e-05
6.64742e-08
-1.21229e-05
6.89938e-08
-1.2177e-05
7.24558e-08
-1.22312e-05
7.72331e-08
-1.22855e-05
8.30846e-08
-1.23403e-05
9.00516e-08
-1.23956e-05
9.77725e-08
-1.24517e-05
1.06391e-07
-1.25087e-05
1.15601e-07
-1.25668e-05
1.25481e-07
-1.26259e-05
1.35789e-07
-1.26863e-05
1.46098e-07
-1.27481e-05
1.57182e-07
-1.28112e-05
1.68572e-07
-1.28757e-05
1.80163e-07
-1.29417e-05
1.91409e-07
-1.3009e-05
2.02822e-07
-1.30777e-05
2.13843e-07
-1.31476e-05
2.24599e-07
-1.32187e-05
2.35111e-07
-1.32907e-05
2.44731e-07
-1.33637e-05
2.53392e-07
-1.34375e-05
2.61537e-07
-1.35116e-05
2.68619e-07
-1.35859e-05
2.75104e-07
-1.36601e-05
2.80399e-07
-1.37337e-05
2.84455e-07
-1.38065e-05
2.87567e-07
-1.3878e-05
2.88829e-07
-1.39479e-05
2.88484e-07
-1.40158e-05
2.86584e-07
-1.40811e-05
2.82594e-07
-1.41435e-05
2.76953e-07
-1.42023e-05
2.6908e-07
-1.42571e-05
2.5919e-07
-1.43072e-05
2.47526e-07
-1.43522e-05
2.33331e-07
-1.43916e-05
2.16654e-07
-1.44247e-05
1.97911e-07
-1.44511e-05
1.76448e-07
-1.44702e-05
1.52998e-07
-1.44814e-05
1.27326e-07
-1.44843e-05
9.95409e-08
-1.44783e-05
6.92889e-08
-1.4463e-05
3.7286e-08
-1.4438e-05
3.74552e-09
-1.44029e-05
-3.15933e-08
-1.43576e-05
-6.78386e-08
-1.43017e-05
-1.05445e-07
-1.42352e-05
-1.43569e-07
-1.4158e-05
-1.81748e-07
-1.40701e-05
-2.20124e-07
-1.39715e-05
-2.59288e-07
-1.38624e-05
-2.97107e-07
-1.37426e-05
-3.3614e-07
-1.36132e-05
-3.70813e-07
-1.34734e-05
-4.09125e-07
-1.33246e-05
-4.41847e-07
-1.31669e-05
-4.74568e-07
-1.30013e-05
-5.04045e-07
-1.28285e-05
-5.31096e-07
-1.26492e-05
-5.55866e-07
-1.24639e-05
-5.79664e-07
-1.2274e-05
-5.98766e-07
-1.20801e-05
-6.16429e-07
-1.18836e-05
-6.29391e-07
-1.16846e-05
-6.43987e-07
-1.14857e-05
-6.49176e-07
-1.12905e-05
-6.41709e-07
-1.11007e-05
-6.32057e-07
-1.09245e-05
-5.8848e-07
-1.07629e-05
-5.48786e-07
-1.06296e-05
-4.52534e-07
-1.05339e-05
-3.1585e-07
-1.00041e-07
-1.15921e-05
-3.21677e-07
-1.1594e-05
2.86654e-08
-1.16335e-05
1.6979e-07
-1.17047e-05
3.25343e-07
-1.17959e-05
4.00695e-07
-1.18932e-05
3.99355e-07
-1.19972e-05
4.13054e-07
-1.21019e-05
3.94782e-07
-1.22054e-05
3.70152e-07
-1.23072e-05
3.44711e-07
-1.24071e-05
3.19971e-07
-1.25044e-05
2.92559e-07
-1.25991e-05
2.67713e-07
-1.26913e-05
2.45659e-07
-1.27806e-05
2.22482e-07
-1.28677e-05
2.06275e-07
-1.29517e-05
1.86074e-07
-1.30336e-05
1.7352e-07
-1.31134e-05
1.61267e-07
-1.31916e-05
1.53971e-07
-1.32686e-05
1.4795e-07
-1.33443e-05
1.4344e-07
-1.34189e-05
1.40066e-07
-1.34926e-05
1.39152e-07
-1.35656e-05
1.39435e-07
-1.3638e-05
1.4146e-07
-1.37101e-05
1.44557e-07
-1.37822e-05
1.49312e-07
-1.38543e-05
1.55216e-07
-1.39267e-05
1.62419e-07
-1.39995e-05
1.70516e-07
-1.40728e-05
1.797e-07
-1.41467e-05
1.89588e-07
-1.42215e-05
2.00282e-07
-1.42972e-05
2.11485e-07
-1.43739e-05
2.22787e-07
-1.44517e-05
2.3494e-07
-1.45306e-05
2.47432e-07
-1.46106e-05
2.60167e-07
-1.46917e-05
2.72564e-07
-1.4774e-05
2.85082e-07
-1.48572e-05
2.97079e-07
-1.49413e-05
3.08737e-07
-1.50262e-05
3.1995e-07
-1.51117e-05
3.30205e-07
-1.51976e-05
3.39294e-07
-1.52837e-05
3.47668e-07
-1.53697e-05
3.5461e-07
-1.54553e-05
3.60675e-07
-1.554e-05
3.65184e-07
-1.56237e-05
3.68081e-07
-1.57058e-05
3.69677e-07
-1.57859e-05
3.68967e-07
-1.58636e-05
3.662e-07
-1.59385e-05
3.6143e-07
-1.60099e-05
3.54012e-07
-1.60774e-05
3.44471e-07
-1.61404e-05
3.32102e-07
-1.61984e-05
3.17156e-07
-1.62506e-05
2.9977e-07
-1.62966e-05
2.79325e-07
-1.63358e-05
2.55785e-07
-1.63675e-05
2.29623e-07
-1.63912e-05
2.00172e-07
-1.64063e-05
1.68117e-07
-1.64122e-05
1.33248e-07
-1.64084e-05
9.57316e-08
-1.63944e-05
5.52421e-08
-1.63696e-05
1.24836e-08
-1.63337e-05
-3.21844e-08
-1.62862e-05
-7.9039e-08
-1.6227e-05
-1.27012e-07
-1.61558e-05
-1.76665e-07
-1.60724e-05
-2.26942e-07
-1.59769e-05
-2.77269e-07
-1.58693e-05
-3.27785e-07
-1.57493e-05
-3.79214e-07
-1.56175e-05
-4.28935e-07
-1.54736e-05
-4.80011e-07
-1.53187e-05
-5.25705e-07
-1.51523e-05
-5.75599e-07
-1.49756e-05
-6.18569e-07
-1.47889e-05
-6.61217e-07
-1.45933e-05
-6.99613e-07
-1.43897e-05
-7.34728e-07
-1.41789e-05
-7.6671e-07
-1.39615e-05
-7.97044e-07
-1.37391e-05
-8.21129e-07
-1.35126e-05
-8.42976e-07
-1.32834e-05
-8.58599e-07
-1.30519e-05
-8.75444e-07
-1.28209e-05
-8.80135e-07
-1.25946e-05
-8.68046e-07
-1.2375e-05
-8.5163e-07
-1.2171e-05
-7.92508e-07
-1.19843e-05
-7.35536e-07
-1.18293e-05
-6.07445e-07
-1.1717e-05
-4.28216e-07
-1.51003e-07
-1.27097e-05
-4.03233e-07
-1.27105e-05
2.94944e-08
-1.27539e-05
2.13155e-07
-1.28286e-05
4.0004e-07
-1.29256e-05
4.97739e-07
-1.30316e-05
5.05369e-07
-1.3146e-05
5.27406e-07
-1.32626e-05
5.11447e-07
-1.33792e-05
4.86713e-07
-1.34952e-05
4.60744e-07
-1.36102e-05
4.34911e-07
-1.37234e-05
4.05823e-07
-1.38347e-05
3.79021e-07
-1.39442e-05
3.55096e-07
-1.40511e-05
3.29439e-07
-1.41564e-05
3.11498e-07
-1.42589e-05
2.8858e-07
-1.43595e-05
2.74187e-07
-1.44582e-05
2.5989e-07
-1.45553e-05
2.51127e-07
-1.46513e-05
2.4391e-07
-1.47461e-05
2.38268e-07
-1.48398e-05
2.33773e-07
-1.49326e-05
2.31951e-07
-1.50246e-05
2.31431e-07
-1.5116e-05
2.32849e-07
-1.52069e-05
2.35448e-07
-1.52976e-05
2.39994e-07
-1.53881e-05
2.45757e-07
-1.54787e-05
2.5298e-07
-1.55694e-05
2.6121e-07
-1.56604e-05
2.70697e-07
-1.57517e-05
2.80981e-07
-1.58437e-05
2.92189e-07
-1.59361e-05
3.03973e-07
-1.60293e-05
3.15947e-07
-1.61232e-05
3.28826e-07
-1.62178e-05
3.42064e-07
-1.63132e-05
3.55566e-07
-1.64094e-05
3.68702e-07
-1.65062e-05
3.81906e-07
-1.66036e-05
3.94459e-07
-1.67014e-05
4.06555e-07
-1.67994e-05
4.17992e-07
-1.68976e-05
4.28341e-07
-1.69955e-05
4.37276e-07
-1.70931e-05
4.4527e-07
-1.719e-05
4.51449e-07
-1.72857e-05
4.56443e-07
-1.738e-05
4.59481e-07
-1.74725e-05
4.60501e-07
-1.75626e-05
4.5982e-07
-1.765e-05
4.56335e-07
-1.77341e-05
4.50309e-07
-1.78144e-05
4.41791e-07
-1.78905e-05
4.30027e-07
-1.79616e-05
4.15628e-07
-1.80273e-05
3.97764e-07
-1.80868e-05
3.76723e-07
-1.81396e-05
3.52559e-07
-1.81851e-05
3.24748e-07
-1.82225e-05
2.93199e-07
-1.82513e-05
2.58433e-07
-1.82709e-05
2.19746e-07
-1.82806e-05
1.77839e-07
-1.82798e-05
1.32498e-07
-1.82681e-05
8.39663e-08
-1.82448e-05
3.19325e-08
-1.82094e-05
-2.29024e-08
-1.81615e-05
-8.00322e-08
-1.81008e-05
-1.39785e-07
-1.80269e-05
-2.00891e-07
-1.79396e-05
-2.63981e-07
-1.78387e-05
-3.278e-07
-1.77244e-05
-3.91637e-07
-1.75965e-05
-4.55631e-07
-1.74551e-05
-5.20631e-07
-1.73005e-05
-5.83533e-07
-1.71326e-05
-6.47857e-07
-1.69526e-05
-7.05769e-07
-1.67598e-05
-7.68327e-07
-1.65558e-05
-8.22608e-07
-1.63409e-05
-8.76111e-07
-1.61163e-05
-9.24268e-07
-1.58828e-05
-9.68149e-07
-1.56416e-05
-1.00792e-06
-1.53935e-05
-1.04518e-06
-1.51401e-05
-1.07453e-06
-1.48824e-05
-1.10064e-06
-1.46222e-05
-1.11886e-06
-1.43599e-05
-1.13766e-06
-1.40988e-05
-1.14131e-06
-1.38431e-05
-1.12373e-06
-1.35955e-05
-1.09918e-06
-1.33653e-05
-1.02275e-06
-1.31549e-05
-9.45903e-07
-1.29796e-05
-7.82743e-07
-1.28515e-05
-5.5632e-07
-2.11317e-07
-1.37991e-05
-4.90278e-07
-1.37987e-05
2.91037e-08
-1.38458e-05
2.60187e-07
-1.39248e-05
4.79122e-07
-1.40288e-05
6.01694e-07
-1.41447e-05
6.21221e-07
-1.42704e-05
6.53143e-07
-1.43998e-05
6.40901e-07
-1.45303e-05
6.17205e-07
-1.46613e-05
5.91753e-07
-1.47921e-05
5.65682e-07
-1.49221e-05
5.35773e-07
-1.50507e-05
5.07643e-07
-1.51779e-05
4.82354e-07
-1.53032e-05
4.54677e-07
-1.5427e-05
4.35354e-07
-1.55485e-05
4.10079e-07
-1.56684e-05
3.94079e-07
-1.57866e-05
3.78046e-07
-1.59035e-05
3.68031e-07
-1.60193e-05
3.59716e-07
-1.6134e-05
3.52984e-07
-1.62476e-05
3.47361e-07
-1.63602e-05
3.44565e-07
-1.64719e-05
3.43134e-07
-1.65829e-05
3.43791e-07
-1.66931e-05
3.45697e-07
-1.68029e-05
3.49815e-07
-1.69124e-05
3.55179e-07
-1.70215e-05
3.62125e-07
-1.71305e-05
3.70173e-07
-1.72394e-05
3.79623e-07
-1.73483e-05
3.89941e-07
-1.74574e-05
4.01278e-07
-1.75667e-05
4.13244e-07
-1.76762e-05
4.25474e-07
-1.7786e-05
4.38644e-07
-1.78962e-05
4.52178e-07
-1.80066e-05
4.65976e-07
-1.81172e-05
4.79355e-07
-1.82281e-05
4.92734e-07
-1.83389e-05
5.05301e-07
-1.84496e-05
5.17266e-07
-1.85599e-05
5.2832e-07
-1.86697e-05
5.38127e-07
-1.87787e-05
5.46257e-07
-1.88866e-05
5.5319e-07
-1.89931e-05
5.57908e-07
-1.90977e-05
5.61109e-07
-1.92002e-05
5.61926e-07
-1.93e-05
5.60281e-07
-1.93967e-05
5.56508e-07
-1.94897e-05
5.49397e-07
-1.95786e-05
5.39235e-07
-1.96629e-05
5.26051e-07
-1.97419e-05
5.09003e-07
-1.9815e-05
4.88765e-07
-1.98817e-05
4.64404e-07
-1.99412e-05
4.36233e-07
-1.99928e-05
4.04219e-07
-2.0036e-05
3.6795e-07
-2.00701e-05
3.27281e-07
-2.00944e-05
2.8276e-07
-2.01084e-05
2.33682e-07
-2.01113e-05
1.80735e-07
-2.01025e-05
1.23727e-07
-2.00815e-05
6.29629e-08
-2.00477e-05
-1.82577e-09
-2.00007e-05
-6.99665e-08
-1.99399e-05
-1.40836e-07
-1.98649e-05
-2.1478e-07
-1.97755e-05
-2.90309e-07
-1.96713e-05
-3.68129e-07
-1.95524e-05
-4.46741e-07
-1.94187e-05
-5.25315e-07
-1.92703e-05
-6.0398e-07
-1.91073e-05
-6.83693e-07
-1.89299e-05
-7.60898e-07
-1.87383e-05
-8.39515e-07
-1.85333e-05
-9.10702e-07
-1.83148e-05
-9.86854e-07
-1.8084e-05
-1.05338e-06
-1.78416e-05
-1.11853e-06
-1.75887e-05
-1.17717e-06
-1.73265e-05
-1.2304e-06
-1.7056e-05
-1.27841e-06
-1.67783e-05
-1.32288e-06
-1.64952e-05
-1.35764e-06
-1.62078e-05
-1.38799e-06
-1.5918e-05
-1.40866e-06
-1.56267e-05
-1.42902e-06
-1.53369e-05
-1.43107e-06
-1.50535e-05
-1.40714e-06
-1.47796e-05
-1.37305e-06
-1.45247e-05
-1.2777e-06
-1.42922e-05
-1.17841e-06
-1.40977e-05
-9.77191e-07
-1.39549e-05
-6.991e-07
-2.80078e-07
-1.48772e-05
-5.79638e-07
-1.48773e-05
2.91504e-08
-1.49298e-05
3.12717e-07
-1.5014e-05
5.63291e-07
-1.51254e-05
7.13115e-07
-1.52518e-05
7.47613e-07
-1.53896e-05
7.90928e-07
-1.55327e-05
7.84001e-07
-1.56779e-05
7.62481e-07
-1.58248e-05
7.38589e-07
-1.59722e-05
7.13069e-07
-1.61195e-05
6.83118e-07
-1.62661e-05
6.54262e-07
-1.64119e-05
6.28139e-07
-1.65561e-05
5.98889e-07
-1.66993e-05
5.78496e-07
-1.68403e-05
5.51158e-07
-1.69801e-05
5.33836e-07
-1.71186e-05
5.16567e-07
-1.72561e-05
5.05536e-07
-1.73926e-05
4.96168e-07
-1.75279e-05
4.88333e-07
-1.76621e-05
4.8153e-07
-1.77952e-05
4.77654e-07
-1.79272e-05
4.75137e-07
-1.80582e-05
4.74807e-07
-1.81883e-05
4.75764e-07
-1.83176e-05
4.79131e-07
-1.84462e-05
4.83759e-07
-1.85741e-05
4.90052e-07
-1.87014e-05
4.97512e-07
-1.88283e-05
5.06492e-07
-1.89547e-05
5.16383e-07
-1.90808e-05
5.27376e-07
-1.92066e-05
5.39032e-07
-1.93322e-05
5.51019e-07
-1.94575e-05
5.63947e-07
-1.95825e-05
5.77222e-07
-1.97073e-05
5.90736e-07
-1.98317e-05
6.03753e-07
-1.99556e-05
6.16684e-07
-2.0079e-05
6.28628e-07
-2.02015e-05
6.39796e-07
-2.0323e-05
6.4979e-07
-2.04432e-05
6.58351e-07
-2.05619e-05
6.64956e-07
-2.06788e-05
6.70075e-07
-2.07934e-05
6.7258e-07
-2.09055e-05
6.73196e-07
-2.10146e-05
6.70983e-07
-2.11201e-05
6.65849e-07
-2.12218e-05
6.58114e-07
-2.13189e-05
6.46506e-07
-2.14109e-05
6.31306e-07
-2.14974e-05
6.12526e-07
-2.15777e-05
5.89243e-07
-2.16511e-05
5.62188e-07
-2.1717e-05
5.30341e-07
-2.17748e-05
4.94021e-07
-2.18237e-05
4.53144e-07
-2.18631e-05
4.07369e-07
-2.18924e-05
3.56519e-07
-2.19108e-05
3.01166e-07
-2.19177e-05
2.40572e-07
-2.19124e-05
1.75467e-07
-2.18944e-05
1.05669e-07
-2.18629e-05
3.15402e-08
-2.18176e-05
-4.71275e-08
-2.17579e-05
-1.29722e-07
-2.16832e-05
-2.15499e-07
-2.15932e-05
-3.04808e-07
-2.14876e-05
-3.95933e-07
-2.13661e-05
-4.89635e-07
-2.12286e-05