/*--------------------------------*- C++ -*----------------------------------*\
| =========                 |                                                 |
| \\      /  F ield         | OpenFOAM: The Open Source CFD Toolbox           |
|  \\    /   O peration     | Version:  2306                                  |
|   \\  /    A nd           | Website:  www.openfoam.com                      |
|    \\/     M anipulation  |                                                 |
\*---------------------------------------------------------------------------*/
FoamFile
{
    version     2.0;
    format      ascii;
    arch        "LSB;label=32;scalar=64";
    class       volScalarField;
    location    "20000";
    object      omega;
}
// * * * * * * * * * * * * * * * * * * * * * * * * * * * * * * * * * * * * * //

dimensions      [0 0 -1 0 0 0 0];

internalField   nonuniform List<scalar> 
14751
(
100.011
100.014
100.004
99.9968
99.991
99.9863
99.981
99.9782
99.9781
99.9781
99.9782
99.986
100.002
100.016
100.027
100.034
100.039
100.044
100.048
100.048
100.042
100.036
100.029
100.017
99.9978
99.9811
99.9684
99.961
99.9587
99.9565
99.9543
99.9521
99.95
99.948
99.9459
99.9481
99.9546
99.9612
99.9681
99.9812
100.002
100.021
100.036
100.044
100.046
100.049
100.051
100.053
100.055
100.057
100.059
100.059
100.057
100.055
100.053
100.051
100.049
100.046
100.044
100.036
100.022
100.003
99.9822
99.9691
99.9623
99.9558
99.9494
99.9465
99.947
99.9475
99.948
99.9486
99.9491
99.9496
99.9502
99.9508
99.9515
99.9522
99.9529
99.9535
99.9542
99.9548
99.9554
99.9577
99.9618
99.966
99.9703
99.9772
99.987
99.9999
100.015
100.021
100.02
100.019
100.018
100.016
100.014
100.01
100.005
16.9313
16.9278
16.9061
16.8736
16.8314
16.7848
16.736
16.6855
16.6349
16.584
16.5333
16.4841
16.4367
16.39
16.3441
16.2992
16.2555
16.2134
16.173
16.1336
16.0954
16.0589
16.0243
15.9908
15.9584
15.9281
15.9
15.8744
15.8512
15.8296
15.8096
15.7911
15.7741
15.7585
15.7443
15.7319
15.7213
15.7119
15.7036
15.6971
15.6925
15.6886
15.6851
15.6819
15.6788
15.6765
15.675
15.6743
15.6744
15.6752
15.6768
15.6789
15.6814
15.6848
15.6889
15.6938
15.6996
15.7062
15.7136
15.7213
15.7291
15.7375
15.7466
15.7576
15.7707
15.7849
15.8004
15.8176
15.8367
15.8572
15.8791
15.9026
15.9277
15.9545
15.9828
16.0129
16.0447
16.0782
16.1135
16.1505
16.1892
16.2296
16.2716
16.3153
16.3605
16.4069
16.4544
16.5031
16.5527
16.6031
16.6536
16.7028
16.7499
16.7949
16.8369
16.8737
16.9034
16.9235
16.9324
5.80334
5.79859
5.7801
5.75319
5.71913
5.68174
5.64245
5.60167
5.56055
5.51933
5.47833
5.43802
5.39869
5.36021
5.32273
5.28642
5.25134
5.21773
5.18556
5.15478
5.12534
5.09745
5.07112
5.04621
5.02268
5.00074
4.98038
4.96162
4.9444
4.92854
4.91399
4.90069
4.88859
4.87765
4.86781
4.85914
4.8516
4.84501
4.83934
4.83464
4.83091
4.82804
4.82598
4.82454
4.82361
4.82335
4.82374
4.82477
4.82644
4.82871
4.8316
4.83505
4.83903
4.84361
4.8488
4.8546
4.86101
4.86805
4.87572
4.88393
4.89263
4.90196
4.91196
4.92286
4.93473
4.94742
4.96099
4.97551
4.99109
5.00763
5.02519
5.04379
5.06347
5.08427
5.10621
5.12932
5.15362
5.17914
5.20586
5.23384
5.26298
5.29339
5.32489
5.3575
5.39113
5.4256
5.46073
5.49653
5.53277
5.56926
5.60561
5.6415
5.67613
5.70894
5.73953
5.76571
5.78716
5.80158
5.80774
2.97157
2.96542
2.94901
2.92768
2.90085
2.87164
2.84163
2.81077
2.77975
2.74866
2.7179
2.68771
2.65828
2.62969
2.60204
2.57545
2.54993
2.52567
2.50259
2.48073
2.46005
2.44061
2.42241
2.40542
2.3896
2.37498
2.36154
2.34927
2.3381
2.32799
2.31888
2.31073
2.30351
2.29717
2.29166
2.287
2.28314
2.27996
2.27749
2.27581
2.27493
2.27469
2.27504
2.27593
2.27729
2.27917
2.28155
2.28442
2.28775
2.29153
2.29575
2.30039
2.30542
2.31087
2.31672
2.32297
2.32962
2.33666
2.3441
2.35192
2.36009
2.36865
2.37763
2.38706
2.397
2.40741
2.41831
2.42973
2.44171
2.45425
2.46736
2.48106
2.49537
2.51033
2.52593
2.54221
2.55916
2.57684
2.59513
2.61418
2.63386
2.65432
2.67538
2.69706
2.71929
2.74198
2.76511
2.7885
2.81199
2.83542
2.85857
2.88126
2.90299
2.92333
2.94187
2.95739
2.96963
2.97701
2.97829
1.90901
1.90188
1.88682
1.86847
1.84595
1.82172
1.79709
1.77194
1.74703
1.72271
1.69891
1.67577
1.65333
1.63176
1.61111
1.59147
1.5728
1.55525
1.53873
1.52328
1.50884
1.49543
1.48305
1.47166
1.46122
1.45174
1.44318
1.4355
1.42866
1.42266
1.4174
1.41288
1.40907
1.40592
1.40338
1.40146
1.40015
1.3995
1.3994
1.39983
1.40079
1.4022
1.40403
1.40628
1.40888
1.41188
1.41526
1.41902
1.42312
1.42753
1.43223
1.4372
1.44243
1.44791
1.45363
1.4596
1.4658
1.47222
1.47888
1.48575
1.49283
1.50014
1.50767
1.51546
1.52352
1.53185
1.54046
1.54936
1.55858
1.56813
1.57801
1.58823
1.59882
1.60978
1.62109
1.6328
1.64489
1.65747
1.67059
1.68417
1.69813
1.71252
1.72724
1.74228
1.75757
1.77303
1.78861
1.80421
1.81969
1.83495
1.84982
1.86421
1.87777
1.89019
1.90118
1.90995
1.91636
1.91908
1.91699
1.36737
1.35984
1.34592
1.32953
1.30992
1.28912
1.26826
1.24723
1.22668
1.20679
1.1876
1.16924
1.15191
1.13547
1.11995
1.10534
1.09161
1.07886
1.06704
1.05613
1.0461
1.03693
1.02861
1.02111
1.01438
1.00841
1.00317
0.998615
0.994709
0.991449
0.98875
0.986601
0.984992
0.983908
0.98336
0.983291
0.983676
0.984492
0.985696
0.987264
0.989186
0.991425
0.993962
0.996782
0.999861
1.00321
1.00682
1.01069
1.01477
1.01904
1.02348
1.02809
1.03283
1.03772
1.04274
1.04789
1.05316
1.05856
1.06407
1.0697
1.07544
1.0813
1.08729
1.09341
1.0997
1.10615
1.11276
1.11955
1.12655
1.13375
1.14116
1.14878
1.15661
1.16468
1.1731
1.18191
1.19097
1.20037
1.21008
1.22008
1.23032
1.24084
1.25154
1.26241
1.27339
1.28441
1.29543
1.30636
1.31711
1.3276
1.33769
1.34734
1.3563
1.3643
1.37116
1.37625
1.37944
1.37956
1.37576
1.03165
1.02443
1.01201
0.997636
0.980803
0.963165
0.945714
0.928358
0.911613
0.895599
0.880381
0.866011
0.852582
0.840038
0.828378
0.817631
0.807749
0.798697
0.790422
0.78291
0.776124
0.770046
0.764648
0.7599
0.755769
0.752229
0.749251
0.746808
0.744863
0.743415
0.742434
0.741896
0.741763
0.742015
0.742636
0.743594
0.744871
0.746439
0.748274
0.750356
0.752672
0.755199
0.757922
0.760828
0.763897
0.767127
0.770504
0.774005
0.777614
0.781318
0.785107
0.788971
0.792899
0.796886
0.800929
0.805023
0.809166
0.813355
0.817594
0.821884
0.826219
0.830613
0.835073
0.839607
0.844232
0.848952
0.853777
0.858718
0.863791
0.868997
0.874334
0.879793
0.8855
0.891484
0.897703
0.904179
0.91084
0.917742
0.924858
0.93219
0.939689
0.947386
0.95521
0.963148
0.971147
0.97916
0.987135
0.995029
1.00276
1.01026
1.01744
1.02426
1.03053
1.03602
1.04059
1.04368
1.04517
1.04406
1.03979
0.801859
0.795585
0.785075
0.773018
0.759101
0.744642
0.730507
0.716611
0.703365
0.690853
0.679118
0.668174
0.658065
0.648755
0.640226
0.632483
0.625454
0.61914
0.613471
0.608436
0.603992
0.600117
0.596784
0.593967
0.591632
0.589758
0.588314
0.587278
0.586624
0.586339
0.586392
0.586763
0.587426
0.588361
0.589548
0.590966
0.592599
0.594426
0.596426
0.598584
0.600887
0.603317
0.605861
0.608506
0.611234
0.614035
0.616896
0.619799
0.622739
0.625709
0.6287
0.631705
0.634716
0.637731
0.640746
0.643759
0.646771
0.649782
0.652796
0.655815
0.658841
0.661884
0.664954
0.668057
0.67121
0.674417
0.67769
0.681037
0.684469
0.687986
0.691579
0.695403
0.699416
0.703613
0.707985
0.712548
0.717257
0.722157
0.727225
0.73247
0.737854
0.743404
0.749065
0.75483
0.760658
0.766513
0.772357
0.778159
0.783849
0.789386
0.794689
0.799735
0.804365
0.808376
0.811654
0.8137
0.814437
0.813054
0.809119
0.637352
0.632352
0.623913
0.614239
0.603166
0.591724
0.580636
0.56983
0.55963
0.550098
0.541257
0.533104
0.525658
0.518883
0.512755
0.507272
0.502375
0.498071
0.494291
0.491023
0.488222
0.485865
0.483928
0.48239
0.48122
0.480398
0.479901
0.479705
0.479794
0.480147
0.480741
0.481557
0.482576
0.48378
0.485151
0.486673
0.488331
0.490109
0.491989
0.493959
0.496006
0.498115
0.500274
0.502471
0.50469
0.506922
0.509158
0.511387
0.513606
0.515809
0.51799
0.520144
0.522265
0.524353
0.526407
0.528425
0.530411
0.532367
0.534297
0.536207
0.538099
0.539985
0.541874
0.543774
0.545698
0.547653
0.54965
0.551696
0.553797
0.555953
0.558284
0.560772
0.563397
0.566164
0.569077
0.572147
0.57535
0.578719
0.582238
0.58592
0.589732
0.593704
0.597792
0.601995
0.606281
0.610624
0.614997
0.619377
0.623709
0.627962
0.632068
0.636011
0.639657
0.64283
0.645435
0.647053
0.647635
0.646527
0.643347
0.517122
0.513447
0.506985
0.499508
0.490967
0.482162
0.473673
0.46544
0.457722
0.450567
0.443987
0.437972
0.432531
0.427638
0.423269
0.41942
0.416039
0.413136
0.410658
0.408598
0.406899
0.405542
0.404505
0.40377
0.403311
0.403112
0.40315
0.403408
0.40387
0.404516
0.405328
0.406291
0.407387
0.408602
0.409921
0.41133
0.412816
0.414364
0.415962
0.417597
0.419258
0.420933
0.422611
0.424282
0.425935
0.427562
0.429157
0.430714
0.432232
0.433703
0.435125
0.436496
0.437811
0.439072
0.44028
0.441436
0.442543
0.443606
0.44463
0.445623
0.446589
0.447539
0.448482
0.449427
0.450385
0.451366
0.452378
0.453427
0.454519
0.455731
0.457087
0.458561
0.460152
0.46187
0.463723
0.465721
0.467852
0.470141
0.472579
0.475177
0.477911
0.480807
0.483832
0.486987
0.49025
0.493599
0.497015
0.500482
0.503956
0.507412
0.510795
0.51409
0.517189
0.519942
0.522271
0.52383
0.524587
0.524
0.521732
0.428069
0.425592
0.420846
0.415221
0.40875
0.402037
0.39558
0.389338
0.383519
0.378163
0.373274
0.368841
0.364871
0.361346
0.358244
0.355559
0.353248
0.351319
0.349731
0.348467
0.347477
0.346746
0.346254
0.345988
0.345925
0.346051
0.346347
0.346798
0.34739
0.348106
0.34893
0.34985
0.35085
0.351919
0.353043
0.35421
0.355411
0.356631
0.357861
0.35909
0.360308
0.361506
0.362676
0.363809
0.364899
0.36594
0.366928
0.36786
0.368735
0.369547
0.370297
0.370984
0.371607
0.372169
0.372671
0.373117
0.373511
0.37386
0.374169
0.374447
0.3747
0.374939
0.375173
0.375411
0.375664
0.37594
0.37625
0.376603
0.377019
0.377585
0.378262
0.379048
0.379949
0.380975
0.382135
0.383439
0.38488
0.38648
0.388234
0.390151
0.392213
0.394442
0.396811
0.399323
0.401959
0.404705
0.407544
0.410465
0.413432
0.416424
0.419396
0.422338
0.42516
0.427739
0.430014
0.431701
0.432769
0.432766
0.431387
0.361169
0.359629
0.356195
0.351989
0.347097
0.34198
0.337061
0.33232
0.327923
0.323904
0.320265
0.316997
0.314104
0.31157
0.309377
0.307518
0.305959
0.304708
0.303711
0.302943
0.302381
0.302011
0.301819
0.30179
0.301907
0.302158
0.302527
0.302999
0.303565
0.304207
0.304914
0.305675
0.306476
0.307309
0.308161
0.309022
0.309885
0.310738
0.311572
0.31238
0.313152
0.313883
0.314566
0.315197
0.315769
0.316281
0.316731
0.317116
0.317436
0.317689
0.317876
0.317999
0.318059
0.318059
0.318004
0.317898
0.317748
0.317559
0.31734
0.317097
0.31684
0.316578
0.316323
0.316082
0.315866
0.315684
0.315545
0.315455
0.315504
0.315667
0.315938
0.316321
0.316825
0.317459
0.318228
0.319143
0.3202
0.321416
0.322787
0.324323
0.32601
0.327867
0.329872
0.332024
0.334309
0.336713
0.339225
0.341835
0.344513
0.347242
0.349987
0.352738
0.355425
0.357948
0.360257
0.362122
0.363508
0.364035
0.363423
0.309897
0.309023
0.306555
0.30341
0.299711
0.295819
0.292074
0.288469
0.285141
0.28212
0.279405
0.27699
0.274878
0.273055
0.271505
0.270228
0.269177
0.268349
0.267699
0.267214
0.266883
0.266691
0.266627
0.266678
0.266831
0.267074
0.267394
0.267779
0.26822
0.268703
0.269218
0.269756
0.270306
0.27086
0.271409
0.271945
0.27246
0.272946
0.273396
0.273805
0.274165
0.274472
0.274723
0.274913
0.275041
0.275105
0.275105
0.27504
0.274912
0.27472
0.274467
0.274155
0.273788
0.273372
0.272911
0.272412
0.271882
0.271326
0.270755
0.270175
0.269596
0.269027
0.268479
0.267962
0.267484
0.267057
0.266689
0.266411
0.266269
0.266235
0.266312
0.266508
0.26683
0.267286
0.267882
0.268623
0.269507
0.270545
0.271735
0.273085
0.274585
0.27625
0.278066
0.280028
0.282121
0.284336
0.286661
0.289089
0.291595
0.294166
0.296772
0.299408
0.302016
0.304515
0.306858
0.308857
0.310475
0.311389
0.311343
0.269728
0.269333
0.267602
0.265271
0.262485
0.259526
0.256669
0.25392
0.251389
0.249105
0.247067
0.245271
0.243717
0.2424
0.241288
0.240374
0.239619
0.239015
0.23854
0.23819
0.23795
0.237809
0.237756
0.237782
0.237874
0.238022
0.238216
0.238447
0.238705
0.238981
0.239265
0.239551
0.239828
0.240092
0.240334
0.240548
0.240728
0.240869
0.240966
0.241014
0.24101
0.24095
0.240833
0.240656
0.24042
0.240124
0.239769
0.239358
0.238892
0.238373
0.237806
0.237193
0.236539
0.235851
0.235134
0.234395
0.233643
0.232884
0.232127
0.231379
0.230649
0.229945
0.229278
0.228656
0.22809
0.227588
0.227158
0.226864
0.226682
0.226607
0.226642
0.226797
0.227077
0.22749
0.228041
0.228736
0.229569
0.230545
0.231664
0.232932
0.234339
0.235898
0.237594
0.239428
0.241389
0.24347
0.245661
0.247955
0.250334
0.252785
0.255286
0.257831
0.260373
0.262842
0.265196
0.267276
0.269041
0.270214
0.270568
0.237634
0.237592
0.23642
0.234708
0.232615
0.23036
0.22817
0.226057
0.224116
0.22237
0.22082
0.219466
0.218294
0.21729
0.21643
0.215699
0.215081
0.214573
0.214161
0.213839
0.213593
0.213415
0.213294
0.213224
0.213193
0.213193
0.213217
0.213256
0.213302
0.213349
0.21339
0.213417
0.213426
0.21341
0.213364
0.213283
0.213163
0.213001
0.212794
0.212539
0.212235
0.211879
0.211473
0.211015
0.210506
0.209948
0.209342
0.208693
0.208003
0.207277
0.206518
0.205732
0.204923
0.204096
0.203259
0.202418
0.201581
0.200754
0.199947
0.199165
0.198418
0.197713
0.197057
0.196458
0.195924
0.195464
0.1951
0.194863
0.194732
0.194708
0.19479
0.194983
0.195294
0.195726
0.196284
0.196968
0.19778
0.198725
0.199801
0.201013
0.202355
0.203834
0.20544
0.207173
0.209029
0.211002
0.213084
0.215269
0.217542
0.219893
0.222304
0.224768
0.227246
0.229679
0.232026
0.234153
0.236012
0.237369
0.238019
0.211506
0.211722
0.210969
0.209723
0.208148
0.206419
0.204722
0.203076
0.201562
0.200202
0.198984
0.197902
0.196944
0.196092
0.19534
0.194681
0.194102
0.193605
0.193177
0.192811
0.192496
0.192224
0.191988
0.191781
0.191594
0.191422
0.191257
0.191094
0.190926
0.190748
0.190556
0.190345
0.19011
0.189847
0.189554
0.189226
0.188861
0.188457
0.188013
0.187527
0.187001
0.186434
0.185828
0.185182
0.1845
0.183783
0.183034
0.182256
0.181454
0.180632
0.179795
0.178948
0.178096
0.177244
0.1764
0.175566
0.17475
0.173958
0.173195
0.172471
0.171791
0.171163
0.170596
0.170089
0.169649
0.169282
0.169032
0.16888
0.168819
0.168854
0.168988
0.169225
0.169569
0.170023
0.17059
0.171268
0.172064
0.172983
0.174024
0.175191
0.176479
0.177895
0.179432
0.181091
0.182868
0.184757
0.186753
0.18885
0.191035
0.193301
0.195633
0.198023
0.200439
0.202829
0.205154
0.207297
0.209211
0.210692
0.211556
0.189844
0.190241
0.189795
0.188894
0.187701
0.186356
0.185017
0.183706
0.18248
0.181354
0.180318
0.179364
0.178492
0.177694
0.176967
0.176308
0.175707
0.175165
0.174671
0.174218
0.173796
0.173401
0.173026
0.172667
0.172317
0.171971
0.171625
0.171272
0.17091
0.170534
0.170142
0.16973
0.169297
0.168839
0.168354
0.167842
0.1673
0.166728
0.166125
0.165492
0.16483
0.16414
0.163423
0.162683
0.161921
0.16114
0.160344
0.159535
0.158717
0.157893
0.157067
0.156245
0.155431
0.154631
0.15385
0.153094
0.152363
0.151662
0.150995
0.150369
0.149789
0.149261
0.148789
0.148377
0.148033
0.147765
0.147601
0.147519
0.147518
0.147601
0.147776
0.148047
0.148417
0.148889
0.149464
0.150146
0.150937
0.151842
0.15286
0.153995
0.155243
0.156611
0.158093
0.159692
0.161402
0.16322
0.165141
0.16716
0.169267
0.171455
0.173711
0.176029
0.17838
0.180718
0.183007
0.185144
0.187081
0.188639
0.18965
0.171558
0.172078
0.171851
0.171197
0.170278
0.169205
0.168103
0.166993
0.165922
0.164902
0.163938
0.163026
0.162171
0.161369
0.160617
0.159916
0.159255
0.158638
0.158051
0.157492
0.156953
0.156429
0.155917
0.155413
0.154913
0.154413
0.153911
0.153402
0.152885
0.152356
0.151813
0.151256
0.150682
0.150091
0.149482
0.148855
0.148209
0.147545
0.146863
0.146164
0.145448
0.144716
0.14397
0.143213
0.142447
0.141675
0.140902
0.140131
0.139362
0.138597
0.137838
0.13709
0.136356
0.13564
0.134945
0.134275
0.133634
0.133024
0.132451
0.131919
0.131431
0.130991
0.130602
0.130272
0.130003
0.129826
0.129727
0.129703
0.129755
0.129887
0.130104
0.13041
0.130808
0.131299
0.131888
0.132575
0.133364
0.134258
0.135257
0.136365
0.137579
0.138904
0.140338
0.141881
0.14353
0.145282
0.147133
0.149078
0.15111
0.153221
0.155401
0.157644
0.159925
0.162203
0.164443
0.166555
0.168489
0.170088
0.171194
0.155853
0.156449
0.15637
0.155884
0.155138
0.154224
0.153246
0.152225
0.151214
0.150231
0.149281
0.148367
0.147491
0.146654
0.145853
0.145089
0.144354
0.143651
0.142971
0.14231
0.141663
0.141027
0.140398
0.139776
0.139158
0.138542
0.137925
0.137306
0.136684
0.136057
0.135424
0.134783
0.134134
0.133475
0.132808
0.132132
0.131447
0.130755
0.130058
0.129357
0.128649
0.127936
0.127217
0.126496
0.125773
0.125052
0.124334
0.12362
0.122914
0.122216
0.12153
0.120857
0.120202
0.119565
0.11895
0.118358
0.117796
0.117268
0.116777
0.116326
0.115919
0.11556
0.115252
0.115
0.11481
0.114704
0.114666
0.114696
0.114797
0.114974
0.11523
0.115567
0.115988
0.116497
0.117096
0.117786
0.118571
0.119452
0.120432
0.121512
0.122691
0.123975
0.12536
0.126848
0.128437
0.130124
0.131905
0.133777
0.135733
0.137766
0.139868
0.142032
0.144237
0.146447
0.148626
0.150696
0.152607
0.154216
0.155376
0.142142
0.142768
0.142768
0.142369
0.141705
0.140859
0.139928
0.138941
0.137946
0.136964
0.136003
0.135066
0.134157
0.133277
0.132423
0.131597
0.130794
0.130017
0.129259
0.128519
0.127793
0.127077
0.126371
0.125672
0.124979
0.124291
0.123608
0.122929
0.122253
0.12158
0.120911
0.120241
0.11957
0.118898
0.118223
0.117548
0.116871
0.116193
0.115515
0.114836
0.114156
0.113477
0.112799
0.112123
0.111451
0.110784
0.110122
0.109465
0.108818
0.108183
0.107562
0.106959
0.106374
0.105811
0.105272
0.104759
0.104277
0.103828
0.103416
0.103044
0.102714
0.10243
0.102196
0.102016
0.101898
0.101851
0.101866
0.101944
0.102088
0.102301
0.102587
0.102949
0.103388
0.103908
0.104511
0.105199
0.105974
0.106838
0.107794
0.108843
0.109984
0.111223
0.112558
0.11399
0.115517
0.117136
0.118847
0.120644
0.122521
0.124473
0.126493
0.128574
0.130697
0.132829
0.134937
0.13695
0.138818
0.140415
0.141596
0.12996
0.130576
0.130596
0.130221
0.129584
0.128763
0.127848
0.126871
0.125877
0.124888
0.123911
0.122951
0.122014
0.121099
0.120207
0.119339
0.118491
0.117666
0.116859
0.116071
0.115299
0.114544
0.113799
0.113065
0.112341
0.111625
0.110918
0.110218
0.109526
0.108841
0.108161
0.107486
0.106816
0.106149
0.105486
0.104827
0.104171
0.103517
0.102866
0.102216
0.101569
0.100926
0.100289
0.099659
0.0990359
0.0984208
0.0978147
0.0972189
0.0966359
0.0960679
0.0955168
0.0949843
0.0944722
0.0939827
0.0935181
0.0930811
0.0926745
0.0923007
0.0919624
0.091662
0.0914023
0.0911862
0.0910165
0.0908955
0.0908405
0.0908428
0.090901
0.0910174
0.0911949
0.0914363
0.0917443
0.0921216
0.0925705
0.0930937
0.0936935
0.0943718
0.0951306
0.0959724
0.0968984
0.0979112
0.0990109
0.100201
0.101482
0.102854
0.104316
0.105866
0.107502
0.109221
0.111017
0.112885
0.114819
0.116812
0.118846
0.120892
0.122919
0.12486
0.126669
0.12823
0.129396
0.118971
0.119553
0.119562
0.119187
0.118557
0.117747
0.116841
0.115871
0.114881
0.113891
0.112909
0.11194
0.110989
0.110059
0.109152
0.108268
0.107402
0.106559
0.105733
0.104926
0.104135
0.103358
0.102595
0.101845
0.101108
0.100382
0.0996687
0.0989659
0.0982728
0.0975882
0.0969103
0.0962412
0.0955805
0.094928
0.0942832
0.0936458
0.0930154
0.0923915
0.0917738
0.0911623
0.0905583
0.0899625
0.0893755
0.0887978
0.0882302
0.0876734
0.0871284
0.0865964
0.0860794
0.0855789
0.0850962
0.084633
0.0841909
0.0837718
0.0833776
0.0830105
0.0826728
0.0823664
0.0820936
0.0818566
0.0816579
0.0815
0.0813853
0.0813164
0.0813074
0.0813483
0.0814402
0.0815856
0.0817868
0.0820466
0.0823673
0.0827517
0.0832018
0.0837203
0.0843093
0.0849707
0.0857066
0.0865192
0.0874101
0.0883817
0.0894344
0.0905721
0.0917944
0.0931027
0.0944963
0.0959738
0.0975331
0.0991711
0.100883
0.102663
0.104507
0.106407
0.108348
0.110301
0.112236
0.114092
0.11582
0.117315
0.118433
0.108988
0.109524
0.109514
0.109134
0.10851
0.107712
0.106819
0.105863
0.104886
0.10391
0.102938
0.101976
0.101029
0.100099
0.0991877
0.0982961
0.0974229
0.0965709
0.0957375
0.0949221
0.0941219
0.093335
0.0925639
0.0918085
0.0910681
0.0903428
0.0896319
0.0889348
0.0882506
0.0875785
0.086918
0.0862699
0.0856336
0.0850086
0.0843946
0.0837911
0.0831975
0.0826137
0.0820394
0.0814748
0.0809206
0.0803769
0.0798443
0.079323
0.0788137
0.078317
0.0778339
0.0773653
0.0769125
0.0764767
0.0760591
0.075661
0.0752838
0.074929
0.0745984
0.0742937
0.0740165
0.0737688
0.0735523
0.0733691
0.0732214
0.0731112
0.0730412
0.0730144
0.0730394
0.073109
0.0732252
0.07339
0.0736057
0.0738749
0.0741999
0.0745829
0.0750264
0.0755325
0.0761035
0.0767414
0.077448
0.0782257
0.0790761
0.0800014
0.0810026
0.0820832
0.0832435
0.0844848
0.0858068
0.0872085
0.0886879
0.0902421
0.0918664
0.0935567
0.0953069
0.0971112
0.0989544
0.100809
0.102645
0.104406
0.106039
0.107441
0.10849
0.0999057
0.100397
0.100369
0.0999865
0.0993726
0.0985929
0.0977199
0.0967854
0.0958268
0.0948634
0.0939023
0.0929492
0.0920078
0.0910802
0.0901663
0.0892709
0.0883941
0.087539
0.0867034
0.0858871
0.0850883
0.0843067
0.0835431
0.0827977
0.0820699
0.0813596
0.0806663
0.0799895
0.0793284
0.0786826
0.0780519
0.0774361
0.0768347
0.0762471
0.0756728
0.0751112
0.074562
0.0740248
0.0734995
0.072986
0.0724846
0.0719953
0.0715184
0.071054
0.0706027
0.070165
0.0697415
0.069333
0.0689404
0.0685646
0.0682066
0.0678676
0.0675485
0.0672508
0.0669759
0.066725
0.0664997
0.0663016
0.0661321
0.0659931
0.0658864
0.0658135
0.0657761
0.065784
0.0658332
0.0659227
0.0660543
0.06623
0.0664521
0.0667228
0.0670442
0.0674188
0.0678485
0.0683358
0.0688827
0.0694912
0.0701631
0.0709008
0.071706
0.0725808
0.0735265
0.0745465
0.0756413
0.0768125
0.0780601
0.0793833
0.0807803
0.0822485
0.0837833
0.0853808
0.0870356
0.0887414
0.0904842
0.0922378
0.0939721
0.0956334
0.0971691
0.0984815
0.0994562
0.0916443
0.0920939
0.0920472
0.0916635
0.0910582
0.0902946
0.0894392
0.0885229
0.0875793
0.086626
0.0856733
0.0847272
0.0837915
0.0828692
0.0819621
0.0810745
0.0802065
0.0793612
0.0785371
0.0777341
0.0769512
0.0761884
0.0754457
0.0747233
0.0740206
0.0733376
0.0726737
0.0720285
0.0714014
0.0707918
0.0701995
0.069624
0.0690646
0.0685207
0.0679916
0.0674769
0.066976
0.0664886
0.0660144
0.0655531
0.0651049
0.0646695
0.064247
0.0638376
0.0634417
0.0630594
0.0626914
0.0623381
0.0620003
0.0616785
0.0613737
0.0610867
0.0608185
0.06057
0.0603426
0.0601372
0.0599552
0.059798
0.0596668
0.0595632
0.0594888
0.0594451
0.0594338
0.0594636
0.0595289
0.0596304
0.0597699
0.0599494
0.0601708
0.0604363
0.0607479
0.061108
0.0615185
0.0619816
0.0624993
0.0630737
0.0637067
0.0644004
0.0651567
0.0659776
0.0668648
0.0678212
0.068848
0.0699467
0.0711177
0.0723603
0.073673
0.0750532
0.0764969
0.0780002
0.079558
0.0811642
0.0828055
0.0844569
0.086089
0.0876515
0.0890934
0.0903257
0.091234
0.0840991
0.0845085
0.0844433
0.0840569
0.0834572
0.0827062
0.0818647
0.0809637
0.0800353
0.0790975
0.0781601
0.0772292
0.0763089
0.0754028
0.0745136
0.0736449
0.0727975
0.071974
0.0711736
0.0703962
0.0696412
0.0689083
0.0681973
0.0675082
0.0668406
0.0661942
0.0655685
0.0649631
0.0643772
0.0638105
0.0632622
0.0627318
0.0622185
0.0617216
0.0612405
0.0607745
0.0603232
0.0598859
0.0594623
0.0590522
0.0586552
0.0582712
0.0579003
0.0575423
0.0571974
0.0568659
0.0565481
0.0562443
0.055955
0.0556808
0.0554223
0.0551803
0.0549555
0.0547487
0.054561
0.0543933
0.0542468
0.0541224
0.0540217
0.0539457
0.053896
0.0538741
0.0538815
0.0539249
0.0539996
0.0541067
0.0542481
0.0544254
0.0546407
0.0548958
0.0551927
0.0555337
0.0559205
0.0563554
0.0568404
0.0573773
0.0579682
0.0586151
0.0593198
0.0600845
0.0609109
0.061802
0.062759
0.0637836
0.0648765
0.0660371
0.0672643
0.0685555
0.069907
0.0713153
0.0727755
0.0742817
0.0758213
0.0773708
0.0789018
0.0803673
0.0817182
0.0828729
0.0837213
0.0771821
0.0775519
0.07747
0.077082
0.0764898
0.0757538
0.07493
0.0740492
0.0731423
0.072227
0.0713128
0.0704058
0.0695107
0.068631
0.0677698
0.0669305
0.066114
0.0653228
0.0645563
0.0638145
0.0630966
0.0624024
0.0617314
0.0610833
0.0604578
0.0598545
0.0592729
0.0587124
0.0581723
0.0576519
0.0571505
0.0566675
0.0562019
0.055753
0.0553201
0.0549026
0.0544997
0.054111
0.0537359
0.0533741
0.0530252
0.052689
0.0523652
0.052054
0.0517553
0.0514691
0.0511957
0.0509354
0.0506885
0.0504554
0.0502366
0.0500327
0.0498444
0.0496724
0.0495174
0.0493804
0.0492623
0.0491641
0.0490869
0.0490319
0.0490004
0.0489938
0.0490139
0.049065
0.0491438
0.0492516
0.0493901
0.0495609
0.0497658
0.0500067
0.0502855
0.050604
0.0509643
0.0513683
0.0518181
0.0523154
0.0528622
0.0534606
0.0541124
0.0548195
0.0555841
0.0564087
0.0572951
0.0582449
0.059259
0.0603371
0.0614782
0.06268
0.0639391
0.0652522
0.0666149
0.0680213
0.0694599
0.0709085
0.0723397
0.0737101
0.0749721
0.0760501
0.0768389
0.070842
0.0711741
0.071078
0.0706911
0.07011
0.0693928
0.0685917
0.0677373
0.0668587
0.0659732
0.0650902
0.0642159
0.0633548
0.0625106
0.0616864
0.0608852
0.0601083
0.0593578
0.0586331
0.0579343
0.0572605
0.0566112
0.0559857
0.0553838
0.0548049
0.0542487
0.0537144
0.0532014
0.0527089
0.0522362
0.0517825
0.0513469
0.0509285
0.0505267
0.0501406
0.0497695
0.0494127
0.0490696
0.0487396
0.0484224
0.0481174
0.0478245
0.0475433
0.0472738
0.0470159
0.0467696
0.046535
0.0463123
0.0461017
0.0459036
0.0457184
0.0455466
0.0453886
0.0452452
0.0451169
0.0450046
0.0449091
0.0448312
0.0447719
0.0447324
0.0447136
0.0447168
0.0447457
0.0448001
0.044879
0.0449838
0.0451161
0.0452773
0.045469
0.0456931
0.0459513
0.0462455
0.0465775
0.0469492
0.0473625
0.0478192
0.0483212
0.0488704
0.0494688
0.0501182
0.0508207
0.051579
0.0523948
0.0532699
0.0542055
0.0552014
0.0562567
0.0573695
0.0585366
0.0597551
0.0610208
0.0623284
0.0636669
0.0650159
0.0663491
0.0676258
0.0688007
0.0698031
0.070533
0.0650392
0.065336
0.0652291
0.064847
0.0642812
0.0635876
0.0628149
0.061993
0.0611494
0.0603009
0.0594566
0.0586224
0.057803
0.0570018
0.0562217
0.0554657
0.0547349
0.0540311
0.053354
0.0527032
0.0520779
0.0514773
0.0509008
0.0503478
0.0498178
0.0493101
0.0488242
0.0483593
0.0479144
0.0474889
0.0470817
0.0466921
0.0463192
0.0459621
0.04562
0.0452923
0.0449782
0.044677
0.0443881
0.0441112
0.0438457
0.0435913
0.0433478
0.043115
0.0428927
0.042681
0.0424799
0.0422894
0.0421098
0.0419413
0.0417843
0.0416391
0.0415062
0.0413861
0.0412795
0.0411869
0.0411092
0.041047
0.0410013
0.040973
0.0409631
0.0409726
0.0410059
0.0410604
0.0411367
0.0412361
0.0413598
0.0415093
0.0416862
0.0418921
0.0421286
0.0423975
0.0427005
0.0430394
0.043416
0.0438321
0.0442895
0.04479
0.0453355
0.0459279
0.0465692
0.0472621
0.0480084
0.04881
0.0496681
0.0505829
0.0515536
0.0525785
0.0536548
0.0547799
0.05595
0.05716
0.0584001
0.0596509
0.0608877
0.0620726
0.063162
0.0640902
0.0647627
0.0597419
0.0600061
0.0598919
0.0595186
0.0589728
0.0583077
0.0575688
0.0567853
0.0559827
0.0551773
0.0543778
0.05359
0.0528182
0.0520656
0.051335
0.050629
0.0499488
0.0492958
0.0486696
0.0480697
0.0474951
0.0469452
0.0464188
0.0459155
0.0454345
0.0449753
0.0445372
0.0441192
0.0437204
0.0433401
0.0429773
0.0426311
0.0423007
0.0419852
0.0416838
0.0413958
0.0411205
0.0408571
0.0406052
0.0403642
0.0401336
0.0399133
0.0397027
0.0395018
0.0393104
0.0391284
0.0389559
0.0387928
0.0386394
0.0384958
0.0383623
0.0382393
0.038127
0.038026
0.0379369
0.0378601
0.0377963
0.0377463
0.0377108
0.0376906
0.0376867
0.0377001
0.0377343
0.0377869
0.0378588
0.037951
0.0380649
0.0382017
0.038363
0.0385501
0.0387646
0.0390082
0.0392824
0.039589
0.0399296
0.040306
0.0407198
0.0411729
0.0416669
0.0422038
0.0427857
0.043415
0.0440937
0.0448237
0.0456063
0.0464419
0.0473299
0.0482689
0.0492563
0.0502899
0.0513663
0.0524808
0.0536243
0.054779
0.0559214
0.0570163
0.0580222
0.0588782
0.0594953
0.0549223
0.0551571
0.0550391
0.0546786
0.054157
0.0535248
0.0528246
0.0520842
0.0513277
0.0505702
0.0498203
0.0490833
0.0483633
0.0476631
0.0469853
0.0463323
0.045705
0.0451048
0.0445309
0.0439828
0.0434595
0.0429601
0.0424835
0.042029
0.0415959
0.0411836
0.0407913
0.040418
0.0400628
0.0397249
0.0394035
0.0390975
0.0388062
0.0385287
0.0382642
0.0380121
0.0377715
0.0375419
0.0373226
0.0371133
0.0369135
0.0367228
0.0365409
0.0363676
0.0362027
0.0360463
0.0358981
0.0357583
0.035627
0.0355043
0.0353905
0.0352858
0.0351905
0.0351052
0.0350302
0.034966
0.0349133
0.0348726
0.0348447
0.0348304
0.0348304
0.0348457
0.0348789
0.0349283
0.0349945
0.0350788
0.0351823
0.0353061
0.0354516
0.0356201
0.0358131
0.036032
0.0362783
0.0365537
0.0368597
0.0371979
0.0375699
0.0379775
0.0384222
0.038906
0.0394308
0.0399991
0.0406128
0.0412738
0.0419837
0.0427429
0.043551
0.0444067
0.045308
0.0462527
0.047238
0.0482596
0.0493091
0.0503702
0.0514206
0.0524278
0.0533527
0.0541388
0.054703
0.0505551
0.0507637
0.0506451
0.0503008
0.0498069
0.0492115
0.0485537
0.0478601
0.0471531
0.046447
0.0457497
0.0450663
0.0444004
0.0437546
0.0431312
0.0425322
0.0419586
0.0414113
0.0408895
0.0403927
0.0399196
0.0394693
0.0390407
0.0386331
0.0382457
0.0378777
0.0375283
0.0371968
0.0368821
0.0365834
0.0362998
0.0360305
0.0357746
0.0355314
0.0353
0.0350798
0.0348701
0.0346703
0.0344799
0.0342984
0.0341253
0.0339603
0.0338032
0.0336537
0.0335117
0.033377
0.0332497
0.0331296
0.033017
0.0329119
0.0328146
0.0327252
0.0326441
0.0325716
0.0325081
0.0324542
0.0324102
0.0323768
0.0323546
0.0323443
0.0323467
0.0323626
0.0323938
0.0324392
0.0324994
0.0325755
0.0326685
0.0327795
0.0329096
0.0330602
0.0332325
0.0334279
0.0336477
0.0338935
0.0341666
0.0344687
0.0348012
0.0351657
0.0355639
0.0359973
0.0364681
0.0369785
0.0375305
0.038126
0.0387665
0.0394526
0.0401842
0.0409602
0.0417787
0.0426379
0.0435355
0.0444673
0.0454261
0.0463965
0.0473581
0.0482805
0.0491271
0.0498461
0.0503601
0.0466152
0.0468005
0.046684
0.0463587
0.0458955
0.0453394
0.0447266
0.0440822
0.0434269
0.0427739
0.0421308
0.0415021
0.0408911
0.0402999
0.0397308
0.0391855
0.0386648
0.0381692
0.037698
0.0372506
0.0368256
0.0364221
0.036039
0.0356754
0.0353306
0.0350038
0.0346943
0.0344011
0.0341234
0.0338604
0.0336111
0.0333749
0.0331508
0.0329382
0.0327363
0.0325444
0.032362
0.0321884
0.0320232
0.0318659
0.0317161
0.0315735
0.0314378
0.0313088
0.0311864
0.0310704