/*--------------------------------*- C++ -*----------------------------------*\
| =========                 |                                                 |
| \\      /  F ield         | OpenFOAM: The Open Source CFD Toolbox           |
|  \\    /   O peration     | Version:  2306                                  |
|   \\  /    A nd           | Website:  www.openfoam.com                      |
|    \\/     M anipulation  |                                                 |
\*---------------------------------------------------------------------------*/
FoamFile
{
    version     2.0;
    format      ascii;
    arch        "LSB;label=32;scalar=64";
    class       volScalarField;
    location    "20000";
    object      p;
}
// * * * * * * * * * * * * * * * * * * * * * * * * * * * * * * * * * * * * * //

dimensions      [0 2 -2 0 0 0 0];

internalField   nonuniform List<scalar> 
14751
(
-7.99401e-05
-7.75186e-05
-7.45065e-05
-7.16634e-05
-6.86216e-05
-6.55558e-05
-6.24934e-05
-5.94253e-05
-5.64084e-05
-5.34572e-05
-5.0603e-05
-4.78591e-05
-4.52524e-05
-4.27973e-05
-4.05032e-05
-3.83902e-05
-3.64524e-05
-3.47088e-05
-3.31508e-05
-3.1789e-05
-3.06158e-05
-2.96327e-05
-2.88341e-05
-2.82191e-05
-2.77797e-05
-2.75117e-05
-2.74088e-05
-2.7464e-05
-2.76716e-05
-2.80244e-05
-2.85154e-05
-2.91382e-05
-2.98855e-05
-3.07512e-05
-3.17287e-05
-3.28102e-05
-3.39912e-05
-3.52643e-05
-3.66243e-05
-3.8063e-05
-3.95766e-05
-4.11585e-05
-4.28023e-05
-4.45042e-05
-4.62569e-05
-4.80561e-05
-4.98969e-05
-5.1773e-05
-5.36788e-05
-5.56079e-05
-5.75553e-05
-5.95164e-05
-6.14846e-05
-6.34555e-05
-6.54236e-05
-6.73833e-05
-6.93301e-05
-7.12581e-05
-7.31624e-05
-7.50397e-05
-7.68826e-05
-7.86884e-05
-8.04519e-05
-8.21671e-05
-8.38321e-05
-8.54414e-05
-8.69919e-05
-8.84784e-05
-8.98989e-05
-9.12492e-05
-9.25259e-05
-9.37267e-05
-9.48476e-05
-9.58864e-05
-9.68401e-05
-9.77058e-05
-9.84797e-05
-9.91606e-05
-9.97413e-05
-0.000100225
-0.000100597
-0.000100865
-0.000101014
-0.000101045
-0.000100948
-0.000100719
-0.000100349
-9.98329e-05
-9.91603e-05
-9.83289e-05
-9.73196e-05
-9.61399e-05
-9.47801e-05
-9.32173e-05
-9.14984e-05
-8.95559e-05
-8.74316e-05
-8.51324e-05
-8.29306e-05
-7.99406e-05
-7.75189e-05
-7.4507e-05
-7.1664e-05
-6.86223e-05
-6.55567e-05
-6.24942e-05
-5.94262e-05
-5.64094e-05
-5.34581e-05
-5.0604e-05
-4.78601e-05
-4.52535e-05
-4.27985e-05
-4.05044e-05
-3.83914e-05
-3.64538e-05
-3.47102e-05
-3.31522e-05
-3.17905e-05
-3.06173e-05
-2.96342e-05
-2.88356e-05
-2.82206e-05
-2.77812e-05
-2.75131e-05
-2.74102e-05
-2.74653e-05
-2.76728e-05
-2.80255e-05
-2.85165e-05
-2.91391e-05
-2.98864e-05
-3.0752e-05
-3.17294e-05
-3.28109e-05
-3.39917e-05
-3.52647e-05
-3.66246e-05
-3.80633e-05
-3.95768e-05
-4.11585e-05
-4.28023e-05
-4.45041e-05
-4.62567e-05
-4.80558e-05
-4.98965e-05
-5.17726e-05
-5.36783e-05
-5.56074e-05
-5.75547e-05
-5.95157e-05
-6.14838e-05
-6.34546e-05
-6.54226e-05
-6.73823e-05
-6.9329e-05
-7.1257e-05
-7.31613e-05
-7.50385e-05
-7.68813e-05
-7.86871e-05
-8.04506e-05
-8.21657e-05
-8.38306e-05
-8.54399e-05
-8.69904e-05
-8.84769e-05
-8.98973e-05
-9.12476e-05
-9.25244e-05
-9.37251e-05
-9.48461e-05
-9.58848e-05
-9.68386e-05
-9.77043e-05
-9.84782e-05
-9.91591e-05
-9.97398e-05
-0.000100223
-0.000100596
-0.000100864
-0.000101013
-0.000101043
-0.000100947
-0.000100718
-0.000100348
-9.9832e-05
-9.91594e-05
-9.83281e-05
-9.73188e-05
-9.61393e-05
-9.47796e-05
-9.32168e-05
-9.14981e-05
-8.95558e-05
-8.74316e-05
-8.51324e-05
-8.29307e-05
-7.99408e-05
-7.752e-05
-7.45081e-05
-7.16656e-05
-6.86241e-05
-6.55584e-05
-6.24959e-05
-5.94276e-05
-5.64106e-05
-5.34593e-05
-5.0605e-05
-4.7861e-05
-4.52543e-05
-4.27992e-05
-4.05051e-05
-3.83921e-05
-3.64545e-05
-3.4711e-05
-3.31532e-05
-3.17916e-05
-3.06186e-05
-2.96356e-05
-2.8837e-05
-2.82221e-05
-2.77827e-05
-2.75146e-05
-2.74116e-05
-2.74667e-05
-2.76741e-05
-2.80268e-05
-2.85177e-05
-2.91402e-05
-2.98874e-05
-3.07529e-05
-3.17302e-05
-3.28115e-05
-3.39923e-05
-3.52651e-05
-3.66249e-05
-3.80635e-05
-3.95768e-05
-4.11585e-05
-4.28021e-05
-4.45038e-05
-4.62563e-05
-4.80553e-05
-4.98959e-05
-5.17719e-05
-5.36775e-05
-5.56065e-05
-5.75537e-05
-5.95146e-05
-6.14827e-05
-6.34534e-05
-6.54213e-05
-6.73809e-05
-6.93275e-05
-7.12555e-05
-7.31596e-05
-7.50368e-05
-7.68796e-05
-7.86853e-05
-8.04487e-05
-8.21638e-05
-8.38287e-05
-8.54379e-05
-8.69884e-05
-8.84748e-05
-8.98953e-05
-9.12456e-05
-9.25223e-05
-9.37231e-05
-9.4844e-05
-9.58828e-05
-9.68366e-05
-9.77023e-05
-9.84763e-05
-9.91572e-05
-9.97379e-05
-0.000100222
-0.000100594
-0.000100862
-0.000101011
-0.000101042
-0.000100946
-0.000100717
-0.000100347
-9.98312e-05
-9.91587e-05
-9.83275e-05
-9.73183e-05
-9.61387e-05
-9.47791e-05
-9.32162e-05
-9.14977e-05
-8.95555e-05
-8.74316e-05
-8.51322e-05
-8.29318e-05
-7.99411e-05
-7.75219e-05
-7.451e-05
-7.16681e-05
-6.86269e-05
-6.5561e-05
-6.24983e-05
-5.94297e-05
-5.64123e-05
-5.34606e-05
-5.06061e-05
-4.78618e-05
-4.52548e-05
-4.27996e-05
-4.05053e-05
-3.83923e-05
-3.64548e-05
-3.47114e-05
-3.31539e-05
-3.17925e-05
-3.06196e-05
-2.96368e-05
-2.88384e-05
-2.82235e-05
-2.77842e-05
-2.75161e-05
-2.74131e-05
-2.74681e-05
-2.76756e-05
-2.80281e-05
-2.85189e-05
-2.91413e-05
-2.98884e-05
-3.07537e-05
-3.17309e-05
-3.28121e-05
-3.39927e-05
-3.52654e-05
-3.6625e-05
-3.80634e-05
-3.95766e-05
-4.11581e-05
-4.28015e-05
-4.45031e-05
-4.62555e-05
-4.80544e-05
-4.98948e-05
-5.17706e-05
-5.36761e-05
-5.5605e-05
-5.7552e-05
-5.95128e-05
-6.14808e-05
-6.34514e-05
-6.54192e-05
-6.73787e-05
-6.93252e-05
-7.12531e-05
-7.31572e-05
-7.50343e-05
-7.6877e-05
-7.86827e-05
-8.0446e-05
-8.2161e-05
-8.38259e-05
-8.54351e-05
-8.69856e-05
-8.8472e-05
-8.98924e-05
-9.12427e-05
-9.25194e-05
-9.37202e-05
-9.48412e-05
-9.588e-05
-9.68339e-05
-9.76996e-05
-9.84737e-05
-9.91547e-05
-9.97356e-05
-0.00010022
-0.000100592
-0.00010086
-0.00010101
-0.000101041
-0.000100945
-0.000100716
-0.000100346
-9.98307e-05
-9.91583e-05
-9.83273e-05
-9.73181e-05
-9.61385e-05
-9.47789e-05
-9.3216e-05
-9.14976e-05
-8.95556e-05
-8.7432e-05
-8.51319e-05
-8.29344e-05
-7.9942e-05
-7.7525e-05
-7.45134e-05
-7.16722e-05
-6.86316e-05
-6.55654e-05
-6.25025e-05
-5.94334e-05
-5.64155e-05
-5.34633e-05
-5.06084e-05
-4.78638e-05
-4.52566e-05
-4.2801e-05
-4.05065e-05
-3.83935e-05
-3.6456e-05
-3.47128e-05
-3.31555e-05
-3.17943e-05
-3.06217e-05
-2.9639e-05
-2.88408e-05
-2.82259e-05
-2.77866e-05
-2.75185e-05
-2.74155e-05
-2.74704e-05
-2.76776e-05
-2.803e-05
-2.85206e-05
-2.91428e-05
-2.98896e-05
-3.07548e-05
-3.17317e-05
-3.28126e-05
-3.39929e-05
-3.52654e-05
-3.66246e-05
-3.80628e-05
-3.95758e-05
-4.1157e-05
-4.28002e-05
-4.45015e-05
-4.62536e-05
-4.80523e-05
-4.98925e-05
-5.17681e-05
-5.36734e-05
-5.5602e-05
-5.75489e-05
-5.95095e-05
-6.14773e-05
-6.34477e-05
-6.54154e-05
-6.73747e-05
-6.93212e-05
-7.12489e-05
-7.31529e-05
-7.50299e-05
-7.68726e-05
-7.86782e-05
-8.04414e-05
-8.21565e-05
-8.38213e-05
-8.54305e-05
-8.6981e-05
-8.84674e-05
-8.98878e-05
-9.12382e-05
-9.25149e-05
-9.37158e-05
-9.48368e-05
-9.58757e-05
-9.68297e-05
-9.76956e-05
-9.84697e-05
-9.91509e-05
-9.97319e-05
-0.000100216
-0.000100589
-0.000100857
-0.000101007
-0.000101039
-0.000100943
-0.000100715
-0.000100345
-9.98299e-05
-9.91577e-05
-9.8327e-05
-9.7318e-05
-9.61385e-05
-9.47791e-05
-9.3216e-05
-9.14981e-05
-8.95564e-05
-8.74331e-05
-8.51318e-05
-8.29391e-05
-7.99444e-05
-7.753e-05
-7.45191e-05
-7.16787e-05
-6.86391e-05
-6.55727e-05
-6.25097e-05
-5.944e-05
-5.64215e-05
-5.34688e-05
-5.06135e-05
-4.78684e-05
-4.52607e-05
-4.28048e-05
-4.05099e-05
-3.83968e-05
-3.64592e-05
-3.47162e-05
-3.31589e-05
-3.1798e-05
-3.06255e-05
-2.96429e-05
-2.88447e-05
-2.82298e-05
-2.77903e-05
-2.7522e-05
-2.74188e-05
-2.74734e-05
-2.76804e-05
-2.80324e-05
-2.85226e-05
-2.91445e-05
-2.98909e-05
-3.07556e-05
-3.17321e-05
-3.28126e-05
-3.39925e-05
-3.52645e-05
-3.66233e-05
-3.80611e-05
-3.95736e-05
-4.11544e-05
-4.27973e-05
-4.44983e-05
-4.62501e-05
-4.80484e-05
-4.98882e-05
-5.17634e-05
-5.36683e-05
-5.55967e-05
-5.75433e-05
-5.95037e-05
-6.14713e-05
-6.34415e-05
-6.5409e-05
-6.73682e-05
-6.93145e-05
-7.12422e-05
-7.31461e-05
-7.5023e-05
-7.68657e-05
-7.86712e-05
-8.04345e-05
-8.21495e-05
-8.38144e-05
-8.54236e-05
-8.69741e-05
-8.84606e-05
-8.98811e-05
-9.12316e-05
-9.25084e-05
-9.37094e-05
-9.48306e-05
-9.58697e-05
-9.68237e-05
-9.76898e-05
-9.84642e-05
-9.91457e-05
-9.97269e-05
-0.000100211
-0.000100585
-0.000100854
-0.000101004
-0.000101036
-0.000100941
-0.000100713
-0.000100344
-9.9829e-05
-9.91573e-05
-9.83271e-05
-9.73185e-05
-9.61391e-05
-9.47801e-05
-9.32169e-05
-9.14996e-05
-8.95584e-05
-8.74354e-05
-8.51324e-05
-8.29463e-05
-7.99492e-05
-7.75377e-05
-7.45279e-05
-7.16884e-05
-6.86501e-05
-6.55835e-05
-6.25202e-05
-5.945e-05
-5.64308e-05
-5.34775e-05
-5.06215e-05
-4.78758e-05
-4.52674e-05
-4.28109e-05
-4.05155e-05
-3.84021e-05
-3.64642e-05
-3.47211e-05
-3.31638e-05
-3.18028e-05
-3.06303e-05
-2.96477e-05
-2.88493e-05
-2.82341e-05
-2.77943e-05
-2.75257e-05
-2.7422e-05
-2.74762e-05
-2.76826e-05
-2.80342e-05
-2.85238e-05
-2.91451e-05
-2.9891e-05
-3.07551e-05
-3.1731e-05
-3.28109e-05
-3.39902e-05
-3.52617e-05
-3.662e-05
-3.80572e-05
-3.95693e-05
-4.11497e-05
-4.27921e-05
-4.44927e-05
-4.6244e-05
-4.8042e-05
-4.98814e-05
-5.17561e-05
-5.36606e-05
-5.55887e-05
-5.75351e-05
-5.94953e-05
-6.14627e-05
-6.34328e-05
-6.54002e-05
-6.73593e-05
-6.93056e-05
-7.12331e-05
-7.31371e-05
-7.5014e-05
-7.68566e-05
-7.86622e-05
-8.04255e-05
-8.21407e-05
-8.38056e-05
-8.5415e-05
-8.69656e-05
-8.84523e-05
-8.9873e-05
-9.12236e-05
-9.25006e-05
-9.37018e-05
-9.48232e-05
-9.58624e-05
-9.68168e-05
-9.76831e-05
-9.84578e-05
-9.91396e-05
-9.97211e-05
-0.000100206
-0.00010058
-0.000100849
-0.000101
-0.000101033
-0.000100938
-0.000100712
-0.000100343
-9.98289e-05
-9.91578e-05
-9.83282e-05
-9.73202e-05
-9.61412e-05
-9.47827e-05
-9.32196e-05
-9.1503e-05
-8.95625e-05
-8.74399e-05
-8.51348e-05
-8.29566e-05
-7.99572e-05
-7.75488e-05
-7.45405e-05
-7.17016e-05
-6.86647e-05
-6.55981e-05
-6.25343e-05
-5.94635e-05
-5.64433e-05
-5.3489e-05
-5.06321e-05
-4.78855e-05
-4.52762e-05
-4.28187e-05
-4.05224e-05
-3.84083e-05
-3.64699e-05
-3.47264e-05
-3.31689e-05
-3.18076e-05
-3.06349e-05
-2.96519e-05
-2.88532e-05
-2.82375e-05
-2.77972e-05
-2.7528e-05
-2.74237e-05
-2.74773e-05
-2.76831e-05
-2.80339e-05
-2.85229e-05
-2.91435e-05
-2.98887e-05
-3.07521e-05
-3.17273e-05
-3.28067e-05
-3.39854e-05
-3.52562e-05
-3.6614e-05
-3.80507e-05
-3.95623e-05
-4.11421e-05
-4.27842e-05
-4.44843e-05
-4.62353e-05
-4.80329e-05
-4.9872e-05
-5.17464e-05
-5.36506e-05
-5.55785e-05
-5.75248e-05
-5.94848e-05
-6.14521e-05
-6.34221e-05
-6.53895e-05
-6.73486e-05
-6.92949e-05
-7.12225e-05
-7.31265e-05
-7.50035e-05
-7.68463e-05
-7.8652e-05
-8.04154e-05
-8.21308e-05
-8.37959e-05
-8.54055e-05
-8.69563e-05
-8.84432e-05
-8.98641e-05
-9.1215e-05
-9.24923e-05
-9.36937e-05
-9.48153e-05
-9.58548e-05
-9.68095e-05
-9.76762e-05
-9.84512e-05
-9.91335e-05
-9.97155e-05
-0.000100201
-0.000100575
-0.000100846
-0.000100997
-0.000101031
-0.000100937
-0.000100711
-0.000100344
-9.98303e-05
-9.91599e-05
-9.83312e-05
-9.73238e-05
-9.61453e-05
-9.47875e-05
-9.32245e-05
-9.15088e-05
-8.95692e-05
-8.74472e-05
-8.51401e-05
-8.29705e-05
-7.99688e-05
-7.75633e-05
-7.45571e-05
-7.17186e-05
-6.8683e-05
-6.56163e-05
-6.25518e-05
-5.948e-05
-5.64585e-05
-5.3503e-05
-5.06447e-05
-4.78968e-05
-4.52861e-05
-4.28273e-05
-4.05297e-05
-3.84146e-05
-3.64752e-05
-3.47311e-05
-3.3173e-05
-3.18113e-05
-3.0638e-05
-2.96546e-05
-2.88552e-05
-2.82389e-05
-2.77979e-05
-2.75281e-05
-2.74229e-05
-2.74758e-05
-2.76808e-05
-2.8031e-05
-2.85192e-05
-2.91391e-05
-2.98835e-05
-3.07463e-05
-3.17208e-05
-3.27995e-05
-3.39776e-05
-3.52479e-05
-3.6605e-05
-3.80413e-05
-3.95525e-05
-4.11318e-05
-4.27736e-05
-4.44733e-05
-4.62241e-05
-4.80214e-05
-4.98603e-05
-5.17344e-05
-5.36386e-05
-5.55664e-05
-5.75125e-05
-5.94725e-05
-6.14399e-05
-6.34099e-05
-6.53774e-05
-6.73366e-05
-6.9283e-05
-7.12107e-05
-7.3115e-05
-7.49921e-05
-7.68352e-05
-7.86411e-05
-8.04048e-05
-8.21205e-05
-8.37859e-05
-8.53957e-05
-8.69468e-05
-8.8434e-05
-8.98552e-05
-9.12064e-05
-9.2484e-05
-9.36857e-05
-9.48077e-05
-9.58476e-05
-9.68026e-05
-9.76698e-05
-9.84453e-05
-9.91281e-05
-9.97106e-05
-0.000100197
-0.000100572
-0.000100843
-0.000100996
-0.00010103
-0.000100938
-0.000100713
-0.000100346
-9.98337e-05
-9.91642e-05
-9.83365e-05
-9.733e-05
-9.61521e-05
-9.47951e-05
-9.32325e-05
-9.15176e-05
-8.95791e-05
-8.74579e-05
-8.51485e-05
-8.29881e-05
-7.99844e-05
-7.75815e-05
-7.45776e-05
-7.17391e-05
-6.87048e-05
-6.56377e-05
-6.25722e-05
-5.9499e-05
-5.64758e-05
-5.35186e-05
-5.06584e-05
-4.79088e-05
-4.52961e-05
-4.28357e-05
-4.05364e-05
-3.84198e-05
-3.64792e-05
-3.47341e-05
-3.31753e-05
-3.18128e-05
-3.06388e-05
-2.96546e-05
-2.88545e-05
-2.82374e-05
-2.77956e-05
-2.7525e-05
-2.7419e-05
-2.74711e-05
-2.76753e-05
-2.80247e-05
-2.85121e-05
-2.91313e-05
-2.98751e-05
-3.07372e-05
-3.1711e-05
-3.27892e-05
-3.39667e-05
-3.52365e-05
-3.65932e-05
-3.80291e-05
-3.95399e-05
-4.1119e-05
-4.27604e-05
-4.44599e-05
-4.62106e-05
-4.80078e-05
-4.98465e-05
-5.17206e-05
-5.36248e-05
-5.55526e-05
-5.74988e-05
-5.94589e-05
-6.14264e-05
-6.33966e-05
-6.53643e-05
-6.73237e-05
-6.92704e-05
-7.11984e-05
-7.31031e-05
-7.49804e-05
-7.68239e-05
-7.86302e-05
-8.03942e-05
-8.21103e-05
-8.3776e-05
-8.53863e-05
-8.69377e-05
-8.84253e-05
-8.98469e-05
-9.11985e-05
-9.24764e-05
-9.36786e-05
-9.4801e-05
-9.58413e-05
-9.67968e-05
-9.76645e-05
-9.84405e-05
-9.9124e-05
-9.97071e-05
-0.000100194
-0.00010057
-0.000100842
-0.000100996
-0.000101031
-0.00010094
-0.000100717
-0.000100351
-9.98397e-05
-9.91713e-05
-9.83447e-05
-9.73393e-05
-9.61621e-05
-9.4806e-05
-9.32439e-05
-9.153e-05
-8.95928e-05
-8.74724e-05
-8.51606e-05
-8.30094e-05
-8.00039e-05
-7.7603e-05
-7.46017e-05
-7.17627e-05
-6.87291e-05
-6.56614e-05
-6.25944e-05
-5.95195e-05
-5.6494e-05
-5.35347e-05
-5.06722e-05
-4.79205e-05
-4.53056e-05
-4.2843e-05
-4.05417e-05
-3.84234e-05
-3.64813e-05
-3.47349e-05
-3.31749e-05
-3.18112e-05
-3.06364e-05
-2.96513e-05
-2.88503e-05
-2.82323e-05
-2.77896e-05
-2.75182e-05
-2.74113e-05
-2.74627e-05
-2.76661e-05
-2.80147e-05
-2.85015e-05
-2.912e-05
-2.98631e-05
-3.07247e-05
-3.1698e-05
-3.27757e-05
-3.39528e-05
-3.52222e-05
-3.65785e-05
-3.80142e-05
-3.95247e-05
-4.11036e-05
-4.2745e-05
-4.44444e-05
-4.6195e-05
-4.79923e-05
-4.98311e-05
-5.17053e-05
-5.36095e-05
-5.55375e-05
-5.7484e-05
-5.94443e-05
-6.1412e-05
-6.33826e-05
-6.53507e-05
-6.73105e-05
-6.92576e-05
-7.1186e-05
-7.30911e-05
-7.49689e-05
-7.68128e-05
-7.86196e-05
-8.03841e-05
-8.21007e-05
-8.37669e-05
-8.53776e-05
-8.69295e-05
-8.84177e-05
-8.98397e-05
-9.11917e-05
-9.24701e-05
-9.36728e-05
-9.47957e-05
-9.58365e-05
-9.67925e-05
-9.76609e-05
-9.84375e-05
-9.91216e-05
-9.97055e-05
-0.000100194
-0.00010057
-0.000100844
-0.000100999
-0.000101035
-0.000100945
-0.000100723
-0.000100359
-9.98488e-05
-9.91816e-05
-9.83562e-05
-9.7352e-05
-9.61757e-05
-9.48204e-05
-9.32589e-05
-9.15459e-05
-8.96103e-05
-8.74906e-05
-8.51765e-05
-8.30342e-05
-8.00267e-05
-7.76267e-05
-7.46282e-05
-7.17882e-05
-6.87553e-05
-6.56867e-05
-6.26178e-05
-5.95409e-05
-5.65128e-05
-5.3551e-05
-5.06858e-05
-4.79315e-05
-4.53139e-05
-4.28487e-05
-4.05451e-05
-3.84248e-05
-3.64809e-05
-3.47329e-05
-3.31712e-05
-3.1806e-05
-3.06301e-05
-2.9644e-05
-2.88421e-05
-2.82232e-05
-2.77796e-05
-2.75073e-05
-2.73996e-05
-2.74502e-05
-2.76529e-05
-2.80009e-05
-2.8487e-05
-2.9105e-05
-2.98476e-05
-3.07087e-05
-3.16816e-05
-3.2759e-05
-3.39357e-05
-3.52049e-05
-3.65611e-05
-3.79966e-05
-3.95071e-05
-4.1086e-05
-4.27275e-05
-4.44269e-05
-4.61777e-05
-4.79751e-05
-4.98142e-05
-5.16886e-05
-5.35931e-05
-5.55214e-05
-5.74683e-05
-5.9429e-05
-6.13972e-05
-6.33683e-05
-6.53369e-05
-6.72972e-05
-6.92449e-05
-7.11739e-05
-7.30796e-05
-7.49579e-05
-7.68025e-05
-7.86098e-05
-8.03749e-05
-8.20922e-05
-8.3759e-05
-8.53702e-05
-8.69227e-05
-8.84114e-05
-8.98339e-05
-9.11865e-05
-9.24655e-05
-9.36687e-05
-9.47922e-05
-9.58336e-05
-9.67903e-05
-9.76593e-05
-9.84366e-05
-9.91215e-05
-9.97062e-05
-0.000100195
-0.000100573
-0.000100848
-0.000101004
-0.000101042
-0.000100953
-0.000100732
-0.00010037
-9.9861e-05
-9.91951e-05
-9.83711e-05
-9.73681e-05
-9.61927e-05
-9.48383e-05
-9.32776e-05
-9.15654e-05
-8.96313e-05
-8.75123e-05
-8.51958e-05
-8.3062e-05
-8.00522e-05
-7.76521e-05
-7.46569e-05
-7.18155e-05
-6.87832e-05
-6.57139e-05
-6.26425e-05
-5.95632e-05
-5.65321e-05
-5.35672e-05
-5.06988e-05
-4.79415e-05
-4.53208e-05
-4.28527e-05
-4.05463e-05
-3.84234e-05
-3.6477e-05
-3.47267e-05
-3.31632e-05
-3.17966e-05
-3.06195e-05
-2.96324e-05
-2.88296e-05
-2.82097e-05
-2.77652e-05
-2.74921e-05
-2.73836e-05
-2.74336e-05
-2.76356e-05
-2.7983e-05
-2.84687e-05
-2.90862e-05
-2.98285e-05
-3.06892e-05
-3.16618e-05
-3.27391e-05
-3.39157e-05
-3.51848e-05
-3.65409e-05
-3.79765e-05
-3.94871e-05
-4.10662e-05
-4.27079e-05
-4.44076e-05
-4.61588e-05
-4.79566e-05
-4.9796e-05
-5.16709e-05
-5.35758e-05
-5.55046e-05
-5.74521e-05
-5.94133e-05
-6.13822e-05
-6.33539e-05
-6.53231e-05
-6.72842e-05
-6.92325e-05
-7.11623e-05
-7.30688e-05
-7.49477e-05
-7.67931e-05
-7.86011e-05
-8.03669e-05
-8.20849e-05
-8.37524e-05
-8.53643e-05
-8.69174e-05
-8.84068e-05
-8.983e-05
-9.11832e-05
-9.24628e-05
-9.36666e-05
-9.47907e-05
-9.58328e-05
-9.67902e-05
-9.76599e-05
-9.8438e-05
-9.91236e-05
-9.97093e-05
-0.000100199
-0.000100578
-0.000100854
-0.000101012
-0.000101051
-0.000100964
-0.000100745
-0.000100383
-9.98762e-05
-9.92117e-05
-9.8389e-05
-9.73874e-05
-9.62128e-05
-9.48594e-05
-9.32994e-05
-9.15877e-05
-8.96553e-05
-8.75367e-05
-8.52177e-05
-8.30918e-05
-8.00806e-05
-7.76796e-05
-7.46882e-05
-7.18451e-05
-6.88131e-05
-6.57427e-05
-6.26685e-05
-5.95862e-05
-5.65515e-05
-5.35831e-05
-5.07111e-05
-4.79503e-05
-4.53259e-05
-4.28543e-05
-4.05442e-05
-3.84179e-05
-3.64687e-05
-3.47159e-05
-3.31509e-05
-3.17828e-05
-3.06046e-05
-2.96163e-05
-2.88125e-05
-2.81917e-05
-2.77463e-05
-2.74725e-05
-2.73633e-05
-2.74127e-05
-2.76141e-05
-2.79611e-05
-2.84464e-05
-2.90636e-05
-2.98056e-05
-3.06662e-05
-3.16387e-05
-3.27159e-05
-3.38926e-05
-3.51618e-05
-3.6518e-05
-3.79539e-05
-3.94648e-05
-4.10442e-05
-4.26864e-05
-4.43865e-05
-4.61382e-05
-4.79366e-05
-4.97766e-05
-5.1652e-05
-5.35576e-05
-5.54871e-05
-5.74353e-05
-5.93973e-05
-6.1367e-05
-6.33395e-05
-6.53095e-05
-6.72715e-05
-6.92206e-05
-7.11513e-05
-7.30587e-05
-7.49385e-05
-7.67847e-05
-7.85936e-05
-8.03602e-05
-8.20791e-05
-8.37473e-05
-8.536e-05
-8.69138e-05
-8.8404e-05
-8.9828e-05
-9.1182e-05
-9.24622e-05
-9.36667e-05
-9.47914e-05
-9.58342e-05
-9.67923e-05
-9.76628e-05
-9.84416e-05
-9.91281e-05
-9.97146e-05
-0.000100206
-0.000100586
-0.000100863
-0.000101021
-0.000101063
-0.000100977
-0.000100759
-0.000100399
-9.98938e-05
-9.92308e-05
-9.84095e-05
-9.74093e-05
-9.62357e-05
-9.48831e-05
-9.3324e-05
-9.16127e-05
-8.96819e-05
-8.75635e-05
-8.52421e-05
-8.31237e-05
-8.01123e-05
-7.77096e-05
-7.47221e-05
-7.18769e-05
-6.88448e-05
-6.57731e-05
-6.26954e-05
-5.96098e-05
-5.6571e-05
-5.35986e-05
-5.07223e-05
-4.79573e-05
-4.53283e-05
-4.2852e-05
-4.05378e-05
-3.84077e-05
-3.64558e-05
-3.47008e-05
-3.31341e-05
-3.17644e-05
-3.0585e-05
-2.95956e-05
-2.87908e-05
-2.8169e-05
-2.77228e-05
-2.74483e-05
-2.73384e-05
-2.73873e-05
-2.75883e-05
-2.7935e-05
-2.842e-05
-2.90371e-05
-2.9779e-05
-3.06396e-05
-3.16121e-05
-3.26895e-05
-3.38663e-05
-3.51358e-05
-3.64924e-05
-3.79287e-05
-3.94401e-05
-4.102e-05
-4.26628e-05
-4.43636e-05
-4.6116e-05
-4.79151e-05
-4.97559e-05
-5.16321e-05
-5.35385e-05
-5.54689e-05
-5.7418e-05
-5.93809e-05
-6.13516e-05
-6.33251e-05
-6.52962e-05
-6.72591e-05
-6.92093e-05
-7.11409e-05
-7.30494e-05
-7.49302e-05
-7.67775e-05
-7.85874e-05
-8.0355e-05
-8.20748e-05
-8.37439e-05
-8.53575e-05
-8.69121e-05
-8.84032e-05
-8.9828e-05
-9.11827e-05
-9.24637e-05
-9.36688e-05
-9.47943e-05
-9.58377e-05
-9.67962e-05
-9.76673e-05
-9.84469e-05
-9.91342e-05
-9.97217e-05
-0.000100214
-0.000100595
-0.000100873
-0.000101033
-0.000101076
-0.000100992
-0.000100776
-0.000100418
-9.99139e-05
-9.92526e-05
-9.84327e-05
-9.7434e-05
-9.62616e-05
-9.49098e-05
-9.33516e-05
-9.16406e-05
-8.97116e-05
-8.75933e-05
-8.52696e-05
-8.31581e-05
-8.01473e-05
-7.7742e-05
-7.47586e-05
-7.19109e-05
-6.88783e-05
-6.58049e-05
-6.27233e-05
-5.96338e-05
-5.65903e-05
-5.36131e-05
-5.07313e-05
-4.79611e-05
-4.53266e-05
-4.28454e-05
-4.05271e-05
-3.83934e-05
-3.64388e-05
-3.46814e-05
-3.31128e-05
-3.17415e-05
-3.05607e-05
-2.95701e-05
-2.87643e-05
-2.81415e-05
-2.76945e-05
-2.74193e-05
-2.73088e-05
-2.73573e-05
-2.7558e-05
-2.79044e-05
-2.83893e-05
-2.90063e-05
-2.97483e-05
-3.06091e-05
-3.15818e-05
-3.26595e-05
-3.38368e-05
-3.51067e-05
-3.64637e-05
-3.79007e-05
-3.94128e-05
-4.09934e-05
-4.2637e-05
-4.43386e-05
-4.6092e-05
-4.78921e-05
-4.97338e-05
-5.1611e-05
-5.35184e-05
-5.54498e-05
-5.74e-05
-5.93641e-05
-6.13358e-05
-6.33106e-05
-6.52829e-05
-6.72471e-05
-6.91984e-05
-7.11312e-05
-7.30408e-05
-7.49227e-05
-7.67712e-05
-7.85824e-05
-8.0351e-05
-8.20719e-05
-8.37421e-05
-8.53567e-05
-8.69122e-05
-8.8404e-05
-8.98294e-05
-9.11848e-05
-9.24666e-05
-9.36726e-05
-9.47987e-05
-9.58428e-05
-9.68019e-05
-9.76735e-05
-9.8454e-05
-9.91421e-05
-9.97307e-05
-0.000100224
-0.000100606
-0.000100886
-0.000101048
-0.000101092
-0.00010101
-0.000100796
-0.000100439
-9.99371e-05
-9.92775e-05
-9.84591e-05
-9.74621e-05
-9.62907e-05
-9.49398e-05
-9.33827e-05
-9.16718e-05
-8.97446e-05
-8.76262e-05
-8.53006e-05
-8.31949e-05
-8.01857e-05
-7.77769e-05
-7.47977e-05
-7.1947e-05
-6.89137e-05
-6.58382e-05
-6.2752e-05
-5.96578e-05
-5.66083e-05
-5.36252e-05
-5.07371e-05
-4.79611e-05
-4.53214e-05
-4.28353e-05
-4.05129e-05
-3.83755e-05
-3.64178e-05
-3.46577e-05
-3.3087e-05
-3.17138e-05
-3.05315e-05
-2.95396e-05
-2.87327e-05
-2.81089e-05
-2.76612e-05
-2.73853e-05
-2.72744e-05
-2.73225e-05
-2.75229e-05
-2.78692e-05
-2.83541e-05
-2.89712e-05
-2.97134e-05
-3.05745e-05
-3.15475e-05
-3.26258e-05
-3.38036e-05
-3.50742e-05
-3.6432e-05
-3.78698e-05
-3.93826e-05
-4.09641e-05
-4.26088e-05
-4.43114e-05
-4.60659e-05
-4.78671e-05
-4.97101e-05
-5.15886e-05
-5.34971e-05
-5.54297e-05
-5.73812e-05
-5.93465e-05
-6.13196e-05
-6.32958e-05
-6.52696e-05
-6.72352e-05
-6.91879e-05
-7.11222e-05
-7.30332e-05
-7.49164e-05
-7.67661e-05
-7.85782e-05
-8.0348e-05
-8.20702e-05
-8.37415e-05
-8.53572e-05
-8.69137e-05
-8.84064e-05
-8.98325e-05
-9.11887e-05
-9.24713e-05
-9.3678e-05
-9.48049e-05
-9.58498e-05
-9.68097e-05
-9.76821e-05
-9.84634e-05
-9.91523e-05
-9.9742e-05
-0.000100236
-0.00010062
-0.000100901
-0.000101065
-0.000101111
-0.000101031
-0.000100818
-0.000100464
-9.99634e-05
-9.93056e-05
-9.84889e-05
-9.74935e-05
-9.63233e-05
-9.49732e-05
-9.34171e-05
-9.17063e-05
-8.9781e-05
-8.76624e-05
-8.5335e-05
-8.32344e-05
-8.02275e-05
-7.78145e-05
-7.48395e-05
-7.19856e-05
-6.89509e-05
-6.58726e-05
-6.27806e-05
-5.96805e-05
-5.66242e-05
-5.36347e-05
-5.07405e-05
-4.79589e-05
-4.53138e-05
-4.28226e-05
-4.04956e-05
-3.83538e-05
-3.63928e-05
-3.46296e-05
-3.30567e-05
-3.16813e-05
-3.04974e-05
-2.95041e-05
-2.86961e-05
-2.80712e-05
-2.76227e-05
-2.73461e-05
-2.72347e-05
-2.72825e-05
-2.74828e-05
-2.78291e-05
-2.83141e-05
-2.89314e-05
-2.96739e-05
-3.05354e-05
-3.1509e-05
-3.25879e-05
-3.37664e-05
-3.50379e-05
-3.63966e-05
-3.78355e-05
-3.93494e-05
-4.09319e-05
-4.25778e-05
-4.42816e-05
-4.60374e-05
-4.784e-05
-4.96844e-05
-5.15644e-05
-5.34744e-05
-5.54086e-05
-5.73616e-05
-5.93285e-05
-6.13032e-05
-6.32808e-05
-6.52559e-05
-6.72231e-05
-6.91775e-05
-7.11134e-05
-7.30261e-05
-7.49109e-05
-7.6762e-05
-7.85753e-05
-8.03462e-05
-8.20698e-05
-8.37424e-05
-8.53593e-05
-8.69168e-05
-8.84107e-05
-8.98377e-05
-9.11948e-05
-9.24783e-05
-9.36858e-05
-9.48135e-05
-9.58591e-05
-9.68198e-05
-9.7693e-05
-9.84753e-05
-9.91651e-05
-9.97559e-05
-0.000100251
-0.000100637
-0.000100919
-0.000101084
-0.000101132
-0.000101054
-0.000100844
-0.000100491
-9.99929e-05
-9.93371e-05
-9.8522e-05
-9.75284e-05
-9.63595e-05
-9.50102e-05
-9.34552e-05
-9.17443e-05
-8.98209e-05
-8.7702e-05
-8.53731e-05
-8.32766e-05
-8.0273e-05
-7.78551e-05
-7.4884e-05
-7.20262e-05
-6.8989e-05
-6.59069e-05
-6.28083e-05
-5.97019e-05
-5.66391e-05
-5.36432e-05
-5.07428e-05
-4.79553e-05
-4.53042e-05
-4.28072e-05
-4.04751e-05
-3.83285e-05
-3.63637e-05
-3.45971e-05
-3.30216e-05
-3.1644e-05
-3.04583e-05
-2.94635e-05
-2.86541e-05
-2.80281e-05
-2.75786e-05
-2.73014e-05
-2.71894e-05
-2.7237e-05
-2.74372e-05
-2.77836e-05
-2.82689e-05
-2.88865e-05
-2.96294e-05
-3.04914e-05
-3.14657e-05
-3.25454e-05
-3.37248e-05
-3.49973e-05
-3.63571e-05
-3.77974e-05
-3.93126e-05
-4.08966e-05
-4.2544e-05
-4.42493e-05
-4.60067e-05
-4.78109e-05
-4.96567e-05
-5.15381e-05
-5.34499e-05
-5.5386e-05
-5.7341e-05
-5.93098e-05
-6.12864e-05
-6.32658e-05
-6.52425e-05
-6.72113e-05
-6.91676e-05
-7.11053e-05
-7.30198e-05
-7.49062e-05
-7.67591e-05
-7.8574e-05
-8.03464e-05
-8.20714e-05
-8.37453e-05
-8.53633e-05
-8.6922e-05
-8.8417e-05
-8.98452e-05
-9.12032e-05
-9.24876e-05
-9.3696e-05
-9.48245e-05
-9.5871e-05
-9.68324e-05
-9.77065e-05
-9.84896e-05
-9.91804e-05
-9.97724e-05
-0.000100268
-0.000100656
-0.00010094
-0.000101107
-0.000101157
-0.000101081
-0.000100872
-0.000100522
-0.000100026
-9.93721e-05
-9.85587e-05
-9.7567e-05
-9.63994e-05
-9.50509e-05
-9.34971e-05
-9.1786e-05
-8.98646e-05
-8.77452e-05
-8.5415e-05
-8.33218e-05
-8.03219e-05
-7.78982e-05
-7.49305e-05
-7.20679e-05
-6.90277e-05
-6.59415e-05
-6.28366e-05
-5.97241e-05
-5.66545e-05
-5.3652e-05
-5.07446e-05
-4.79505e-05
-4.52928e-05
-4.27894e-05
-4.04517e-05
-3.82997e-05
-3.63306e-05
-3.45603e-05
-3.29818e-05
-3.16017e-05
-3.04141e-05
-2.94175e-05
-2.86066e-05
-2.79793e-05
-2.75288e-05
-2.72508e-05
-2.71383e-05
-2.71856e-05
-2.73857e-05
-2.77323e-05
-2.82179e-05
-2.8836e-05
-2.95796e-05
-3.04424e-05
-3.14176e-05
-3.24984e-05
-3.36789e-05
-3.49526e-05
-3.63135e-05
-3.7755e-05
-3.92719e-05
-4.08577e-05
-4.2507e-05
-4.42142e-05
-4.59736e-05
-4.77798e-05
-4.96274e-05
-5.15105e-05
-5.34242e-05
-5.53623e-05
-5.73194e-05
-5.92903e-05
-6.1269e-05
-6.32506e-05
-6.52294e-05
-6.72002e-05
-6.91584e-05
-7.10981e-05
-7.30145e-05
-7.49027e-05
-7.67574e-05
-7.8574e-05
-8.0348e-05
-8.20747e-05
-8.37499e-05
-8.53694e-05
-8.69293e-05
-8.84256e-05
-8.98549e-05
-9.12139e-05
-9.24993e-05
-9.37086e-05
-9.4838e-05
-9.58853e-05
-9.68476e-05
-9.77226e-05
-9.85067e-05
-9.91984e-05
-9.97916e-05
-0.000100289
-0.000100678
-0.000100963
-0.000101133
-0.000101185
-0.000101111
-0.000100904
-0.000100557
-0.000100062
-9.94108e-05
-9.85993e-05
-9.76096e-05
-9.64433e-05
-9.50957e-05
-9.35432e-05
-9.18317e-05
-8.99122e-05
-8.77924e-05
-8.54612e-05
-8.33703e-05
-8.03736e-05
-7.79439e-05
-7.49789e-05
-7.21117e-05
-6.90686e-05
-6.59787e-05
-6.28672e-05
-5.97483e-05
-5.66714e-05
-5.36615e-05
-5.07465e-05
-4.79449e-05
-4.52798e-05
-4.27695e-05
-4.04254e-05
-3.82675e-05
-3.62937e-05
-3.4519e-05
-3.29372e-05
-3.15541e-05
-3.03641e-05
-2.93655e-05
-2.8553e-05
-2.79243e-05
-2.74728e-05
-2.7194e-05
-2.70809e-05
-2.71279e-05
-2.73279e-05
-2.76745e-05
-2.81604e-05
-2.87792e-05
-2.95237e-05
-3.03876e-05
-3.1364e-05
-3.24463e-05
-3.36283e-05
-3.49036e-05
-3.6266e-05
-3.7709e-05
-3.92277e-05
-4.08155e-05
-4.24669e-05
-4.41763e-05
-4.59378e-05
-4.77463e-05
-4.95962e-05
-5.14815e-05
-5.33974e-05
-5.53378e-05
-5.72971e-05
-5.92702e-05
-6.12513e-05
-6.32351e-05
-6.52162e-05
-6.71893e-05
-6.91497e-05
-7.10915e-05
-7.301e-05
-7.49003e-05
-7.67569e-05
-7.85755e-05
-8.03513e-05
-8.20796e-05
-8.37565e-05
-8.53774e-05
-8.69388e-05
-8.84364e-05
-8.98669e-05
-9.12271e-05
-9.25136e-05
-9.37238e-05
-9.48541e-05
-9.59023e-05
-9.68655e-05
-9.77414e-05
-9.85265e-05
-9.92191e-05
-9.98137e-05
-0.000100312
-0.000100703
-0.00010099
-0.000101161
-0.000101216
-0.000101144
-0.00010094
-0.000100595
-0.000100103
-9.94535e-05
-9.8644e-05
-9.76564e-05
-9.64917e-05
-9.51449e-05
-9.35936e-05
-9.18818e-05
-8.99643e-05
-8.78438e-05
-8.55115e-05
-8.34215e-05
-8.04288e-05
-7.79934e-05
-7.50312e-05
-7.21596e-05
-6.91137e-05
-6.60197e-05
-6.29013e-05
-5.97752e-05
-5.66902e-05
-5.36721e-05
-5.07485e-05
-4.79386e-05
-4.52653e-05
-4.2747e-05
-4.03959e-05
-3.82313e-05
-3.6252e-05
-3.44725e-05
-3.28868e-05
-3.15003e-05
-3.03072e-05
-2.9306e-05
-2.84917e-05
-2.78616e-05
-2.7409e-05
-2.71295e-05
-2.70161e-05
-2.70631e-05
-2.72633e-05
-2.76099e-05
-2.80963e-05
-2.8716e-05
-2.94617e-05
-3.03269e-05
-3.13048e-05
-3.23887e-05
-3.35725e-05
-3.48497e-05
-3.62141e-05
-3.76592e-05
-3.918e-05
-4.077e-05
-4.24237e-05
-4.41354e-05
-4.58994e-05
-4.77103e-05
-4.95626e-05
-5.14505e-05
-5.33689e-05
-5.53117e-05
-5.72736e-05
-5.92493e-05
-6.12329e-05
-6.32192e-05
-6.52029e-05
-6.71785e-05
-6.91413e-05
-7.10856e-05
-7.30064e-05
-7.48989e-05
-7.67577e-05
-7.85784e-05
-8.03562e-05
-8.20864e-05
-8.3765e-05
-8.53876e-05
-8.69505e-05
-8.84495e-05
-8.98814e-05
-9.12428e-05
-9.25304e-05
-9.37417e-05
-9.4873e-05
-9.59221e-05
-9.68863e-05
-9.77631e-05
-9.85492e-05
-9.92429e-05
-9.98388e-05
-0.000100338
-0.000100731
-0.00010102
-0.000101194
-0.00010125
-0.000101181
-0.00010098
-0.000100637
-0.000100147
-9.95006e-05
-9.86932e-05
-9.77078e-05
-9.65447e-05
-9.51988e-05
-9.36489e-05
-9.19367e-05
-9.00211e-05
-8.78993e-05
-8.55659e-05
-8.34755e-05
-8.04895e-05
-7.80485e-05
-7.5089e-05
-7.22129e-05
-6.91638e-05
-6.60651e-05
-6.29389e-05
-5.98047e-05
-5.67107e-05
-5.36833e-05
-5.07501e-05
-4.79308e-05
-4.52481e-05
-4.27206e-05
-4.03611e-05
-3.81889e-05
-3.62036e-05
-3.44187e-05
-3.28288e-05
-3.14385e-05
-3.02422e-05
-2.92383e-05
-2.84222e-05
-2.77905e-05
-2.7337e-05
-2.70569e-05
-2.69433e-05
-2.69903e-05
-2.71909e-05
-2.75383e-05
-2.80256e-05
-2.86465e-05
-2.93935e-05
-3.02602e-05
-3.12398e-05
-3.23256e-05
-3.35114e-05
-3.47907e-05
-3.61573e-05
-3.76048e-05
-3.9128e-05
-4.07205e-05
-4.23768e-05
-4.40911e-05
-4.58578e-05
-4.76714e-05
-4.95265e-05
-5.14172e-05
-5.33384e-05
-5.52841e-05
-5.72488e-05
-5.92273e-05
-6.12137e-05
-6.32029e-05
-6.51893e-05
-6.71677e-05
-6.91333e-05
-7.10802e-05
-7.30036e-05
-7.48985e-05
-7.67598e-05
-7.85828e-05
-8.03628e-05
-8.2095e-05
-8.37756e-05
-8.54e-05
-8.69645e-05
-8.84652e-05
-8.98985e-05
-9.12612e-05
-9.255e-05
-9.37624e-05
-9.48948e-05
-9.59449e-05
-9.69101e-05
-9.77878e-05
-9.8575e-05
-9.92699e-05
-9.98672e-05
-0.000100368