/*--------------------------------*- C++ -*----------------------------------*\
| =========                 |                                                 |
| \\      /  F ield         | OpenFOAM: The Open Source CFD Toolbox           |
|  \\    /   O peration     | Version:  2306                                  |
|   \\  /    A nd           | Website:  www.openfoam.com                      |
|    \\/     M anipulation  |                                                 |
\*---------------------------------------------------------------------------*/
FoamFile
{
    version     2.0;
    format      ascii;
    arch        "LSB;label=32;scalar=64";
    class       volVectorField;
    location    "20000";
    object      U;
}
// * * * * * * * * * * * * * * * * * * * * * * * * * * * * * * * * * * * * * //

dimensions      [0 1 -1 0 0 0 0];

internalField   nonuniform List<vector> 
14751
(
(0.000185839354715 0.000510696337724 -0.00149284591047)
(0.000185107956667 0.000508520584303 -0.00148699807375)
(0.000185200626021 0.000508942994062 -0.00148771469092)
(0.000184231085453 0.000506268615543 -0.00147992804192)
(0.000183499971679 0.000504320386658 -0.00147404491895)
(0.000182176207537 0.000500721835571 -0.00146340463428)
(0.000180643279579 0.000496536930618 -0.00145108605402)
(0.000178873884159 0.000491711228657 -0.00143686643683)
(0.000176822804165 0.000486099641688 -0.00142038600527)
(0.000174578783211 0.000479954219788 -0.00140235628096)
(0.000172157097603 0.000473313364262 -0.00138290057133)
(0.000169586899738 0.000466261919665 -0.00136225227323)
(0.000166886975236 0.000458847930063 -0.00134056288454)
(0.000164118138473 0.000451239207577 -0.00131832081208)
(0.000161296708827 0.000443483556334 -0.00129565665926)
(0.000158460232382 0.000435678293352 -0.00127287300464)
(0.000155636610681 0.000427909009486 -0.00125019250377)
(0.000152834186976 0.000420190640637 -0.0012276835021)
(0.000150089057805 0.000412630955226 -0.00120563454229)
(0.000147408330878 0.000405244887527 -0.00118410348237)
(0.000144821166753 0.000398116883513 -0.00116332385452)
(0.000142324075963 0.000391236330954 -0.00114326779738)
(0.000139931068319 0.000384643141487 -0.00112404761768)
(0.000137651515436 0.000378362372413 -0.00110573871292)
(0.000135498269712 0.000372430117409 -0.00108844419795)
(0.000133463163831 0.000366822846954 -0.00107209864462)
(0.000131552015862 0.000361558136064 -0.00105674852654)
(0.000129763690432 0.000356631090327 -0.00104238501725)
(0.000128098159175 0.000352043095307 -0.00102900764639)
(0.000126562460475 0.000347812471506 -0.00101667312248)
(0.000125154246671 0.000343933186978 -0.00100536251726)
(0.000123872354895 0.000340401690269 -0.00099506654838)
(0.000122713272028 0.000337208524465 -0.000985756962287)
(0.000121675834466 0.000334350174089 -0.000977424464423)
(0.000120761210791 0.000331829911493 -0.000970078431883)
(0.000119961221659 0.000329624794519 -0.000963653237112)
(0.000119271173416 0.000327722677853 -0.000958111051229)
(0.000118695755418 0.000326135916796 -0.000953489631829)
(0.000118231459954 0.000324854790294 -0.000949760815034)
(0.000117872453387 0.000323862483657 -0.000946877869117)
(0.000117611695342 0.000323140773627 -0.000944784052557)
(0.000117456180946 0.000322710093683 -0.000943535356569)
(0.000117400114087 0.000322551796125 -0.000943085671684)
(0.000117443451494 0.000322667994564 -0.000943434280389)
(0.000117583894601 0.000323050259028 -0.000944563068487)
(0.000117808551243 0.000323664438258 -0.000946368261726)
(0.000118118606128 0.000324513016853 -0.000948859504621)
(0.000118511710548 0.000325590013972 -0.000952017851564)
(0.00011899021106 0.000326901515623 -0.000955862212462)
(0.00011955058661 0.000328438452394 -0.000960364202223)
(0.000120189333039 0.000330190929783 -0.000965495715846)
(0.000120906449904 0.000332158969377 -0.000971256746006)
(0.000121699601476 0.000334335956412 -0.000977628562292)
(0.000122562937193 0.000336705902901 -0.000984564152337)
(0.000123494118875 0.000339262313845 -0.000992044745076)
(0.000124490798692 0.000341999165437 -0.00100005140948)
(0.0001255483105 0.00034490296865 -0.00100854677284)
(0.000126665472402 0.000347971101448 -0.00101752123728)
(0.000127834102712 0.000351180736137 -0.00102690913639)
(0.000129057690989 0.000354542480401 -0.00103673833306)
(0.000130336276975 0.000358054393124 -0.00104700948625)
(0.000131658116327 0.000361686609296 -0.00105762785461)
(0.000133025610868 0.00036544251537 -0.00106861326447)
(0.00013442469054 0.000369285142575 -0.00107985241008)
(0.000135848311226 0.000373196450363 -0.00109128848788)
(0.000137303516794 0.000377194491403 -0.00110297829732)
(0.000138785629807 0.00038126632814 -0.00111488427845)
(0.000140287634939 0.000385392513825 -0.00112695010509)
(0.000141803668029 0.000389557724706 -0.00113912853939)
(0.000143339593265 0.00039377728321 -0.00115146681965)
(0.000144888384047 0.000398032293209 -0.00116390843277)
(0.000146447715212 0.000402315623774 -0.00117643482357)
(0.000148018743296 0.000406631135661 -0.00118905516939)
(0.000149596800121 0.000410965439056 -0.00120173206383)
(0.000151181888007 0.000415318420729 -0.00121446554533)
(0.000152776347601 0.000419696455161 -0.00122727442586)
(0.000154375487115 0.000424087305865 -0.00124012090749)
(0.000155984025216 0.000428501896377 -0.00125304323388)
(0.000157596044801 0.000432927489085 -0.00126599328923)
(0.000159222199282 0.000437386883503 -0.00127905772546)
(0.000160857639724 0.000441875519088 -0.00129219613888)
(0.000162495528373 0.000446365275368 -0.00130535514779)
(0.000164153266314 0.000450911472527 -0.00131867329206)
(0.000165812222132 0.000455458534176 -0.00133200163083)
(0.000167479358389 0.000460028484398 -0.00134539561535)
(0.000169153530137 0.000464616896471 -0.0013588462604)
(0.000170826497296 0.000469203794966 -0.00137228693129)
(0.000172490132167 0.000473763715207 -0.0013856528568)
(0.000174134986398 0.000478275348067 -0.00139886736704)
(0.000175758845549 0.000482726154415 -0.00141191374274)
(0.000177334592782 0.000487052566358 -0.00142457234017)
(0.000178835464992 0.000491173737864 -0.00143662938102)
(0.0001802919009 0.000495172034634 -0.00144832959161)
(0.000181593551052 0.000498764413034 -0.00145878318832)
(0.00018277979159 0.000502019152125 -0.00146831309527)
(0.000183831001898 0.00050492899371 -0.00147675396894)
(0.000184520619632 0.000506852138864 -0.00148228901624)
(0.000184788241039 0.000507661071034 -0.00148442663913)
(0.000185763142709 0.000510194287959 -0.00149228218442)
(0.000551864631566 0.00151685275982 -0.00443307410252)
(0.00054967888213 0.0015102751272 -0.00441561062015)
(0.000549412931258 0.00151016917959 -0.00441337069754)
(0.000546930410557 0.00150348222902 -0.00439340623752)
(0.000544957244278 0.00149834992322 -0.00437750774926)
(0.000541654916482 0.00148958094217 -0.00435092947856)
(0.000537793573392 0.00147914822922 -0.00431988177348)
(0.00053332427172 0.0014670887038 -0.00428394307022)
(0.000528142291376 0.00145302540981 -0.00424228692966)
(0.000522447311217 0.00143752518042 -0.0041965143704)
(0.000516283855669 0.00142070658548 -0.00414698368408)
(0.000509728919966 0.00140279200765 -0.0040943115839)
(0.000502833001479 0.00138391002732 -0.00403890540307)
(0.000495741130744 0.00136446024261 -0.00398192999726)
(0.000488498685659 0.00134457988828 -0.00392374780988)
(0.000481204333425 0.00132451911023 -0.00386515491272)
(0.000473928712558 0.00130450902619 -0.00380671261385)
(0.000466698187517 0.0012845896019 -0.00374863808131)
(0.000459608096091 0.00126505290581 -0.00369169217945)
(0.000452676298942 0.00124593180967 -0.00363602106874)
(0.000445983288999 0.00122745890598 -0.00358226946034)
(0.000439522043137 0.00120961512887 -0.00353038089879)
(0.000433328776209 0.00119250246784 -0.00348064588851)
(0.000427431573733 0.00117619752719 -0.00343329013572)
(0.000421861967379 0.0011607896395 -0.00338856648967)
(0.000416605946367 0.00114623894046 -0.00334636262754)
(0.00041167859085 0.00113259341243 -0.00330679860426)
(0.000407083518514 0.00111985740495 -0.00326990440718)
(0.000402820600657 0.0011080372044 -0.00323567790226)
(0.000398906289179 0.001097174142 -0.00320425189026)
(0.0003953370133 0.00108726157712 -0.00317559716157)
(0.000392110452447 0.00107829215503 -0.003149695237)
(0.000389221906902 0.00107025402637 -0.00312650818719)
(0.000386669062226 0.00106313953627 -0.00310601763482)
(0.000384450724727 0.00105694663908 -0.00308821378636)
(0.000382549356247 0.00105162671012 -0.00307295582901)
(0.000380956742487 0.00104715851477 -0.00306017755555)
(0.000379681113211 0.00104356253214 -0.00304994542967)
(0.000378715430411 0.00104082042345 -0.00304220274907)
(0.000378043345434 0.00103888581416 -0.00303681842505)
(0.000377648430945 0.00103771617351 -0.00303366006405)
(0.000377547006763 0.00103735928396 -0.00303285827683)
(0.000377725164292 0.00103777029025 -0.00303430243487)
(0.000378178104744 0.00103894218222 -0.00303795296605)
(0.00037890124728 0.00104085730411 -0.00304377391214)
(0.000379859422986 0.00104342292922 -0.0030514821122)
(0.000381052731293 0.00104663420085 -0.00306107921495)
(0.000382475300893 0.0010504761447 -0.00307251786391)
(0.000384130658809 0.0010549575382 -0.00308582654329)
(0.000386014054644 0.00106006900773 -0.00310096648329)
(0.000388111473933 0.00106577086886 -0.00311782530005)
(0.000390421757853 0.00107205937277 -0.00313639377823)
(0.000392937875235 0.00107891584646 -0.00315661532897)
(0.000395642279198 0.00108629209128 -0.00317834899484)
(0.000398529128531 0.00109417166263 -0.00320154791849)
(0.000401585520301 0.00110252093501 -0.00322610814718)
(0.000404802144548 0.00111131183949 -0.00325195530577)
(0.000408167248805 0.00112051490845 -0.00327899451803)
(0.000411664490537 0.00113008346814 -0.00330709479683)
(0.000415297335629 0.001140029283 -0.00333628361237)
(0.000419057685841 0.0011503254493 -0.00336649668193)
(0.000422919676646 0.00116090758183 -0.00339752512721)
(0.000426882314855 0.00117176384083 -0.00342936247948)
(0.000430906873758 0.00118279422554 -0.00346169658327)
(0.000434978111744 0.00119395863997 -0.00349440470645)
(0.000439105472895 0.00120527860154 -0.00352756344821)
(0.000443274900305 0.0012167164992 -0.00356105972082)
(0.000447467683151 0.00122822063539 -0.00359474326667)
(0.000451667412945 0.00123974755817 -0.00362848200492)
(0.000455879992076 0.00125131072421 -0.00366232380724)
(0.000460090175442 0.00126287020794 -0.00369614588368)
(0.000464292177538 0.00127440684382 -0.00372990230054)
(0.000468478924841 0.00128590402749 -0.00376353576674)
(0.000472642278525 0.00129733683773 -0.00379698132655)
(0.000476782254098 0.00130870451713 -0.00383023923709)
(0.000480897664144 0.0013200047133 -0.00386329980897)
(0.000484980287462 0.00133121652868 -0.00389609672054)
(0.000489032597926 0.00134233983018 -0.00392865099292)
(0.000493050870869 0.00135337549436 -0.00396093086465)
(0.000497046044998 0.00136433238506 -0.00399302771839)
(0.000501018645437 0.00137524520506 -0.00402494026152)
(0.000504943635809 0.00138600911748 -0.00405647334789)
(0.000508861407871 0.00139676349776 -0.00408794674236)
(0.000512725475017 0.00140736491499 -0.00411898961696)
(0.00051655908123 0.00141788505149 -0.00414978739692)
(0.000520348229296 0.00142828338024 -0.00418022798441)
(0.000524075199852 0.00143852012769 -0.00421016756191)
(0.000527716818691 0.00144852020322 -0.00423942186123)
(0.000531254048972 0.00145824783354 -0.0042678352189)
(0.000534668535741 0.00146763393884 -0.0042952632781)
(0.000537898618069 0.0014765520571 -0.0043212035948)
(0.000540887685279 0.00148481010177 -0.00434520746656)
(0.000543675402434 0.0014925225917 -0.00436759260835)
(0.000546063925762 0.00149921411561 -0.00438675843037)
(0.000548109783425 0.00150489973334 -0.00440318226669)
(0.000549765371713 0.00150967163678 -0.00441644476603)
(0.000550556730208 0.00151211726537 -0.00442275685003)
(0.000550755379641 0.00151285508621 -0.00442432079909)
(0.000552192869451 0.00151639071 -0.00443593685078)
(0.000917524128974 0.00252246840616 -0.00737028704267)
(0.000913827810165 0.0025113379787 -0.00734075572382)
(0.000912951811653 0.00251012972757 -0.00733352016289)
(0.000909605238436 0.00250134925322 -0.00730656822704)
(0.000907028424354 0.00249492274472 -0.00728576022072)
(0.000902810516806 0.00248410266897 -0.00725175006407)
(0.000897771911554 0.00247076124482 -0.00721119132897)
(0.000891885911788 0.00245517650337 -0.00716381133632)
(0.000884983908285 0.00243671245459 -0.00710828425552)
(0.00087732176742 0.00241608833558 -0.00704666279078)
(0.00086896268026 0.00239347657236 -0.00697945475855)
(0.000860021073175 0.0023692024788 -0.00690757754479)
(0.000850571987743 0.00234346315994 -0.0068316354678)
(0.000840807353576 0.00231678149806 -0.00675317105047)
(0.000830805125578 0.00228939335249 -0.00667280691904)
(0.000820695882125 0.00226161966438 -0.00659159828744)
(0.000810590547089 0.00223383612455 -0.00651042446411)
(0.000800527745571 0.0022060873446 -0.00642960591964)
(0.000790647881969 0.00217881783245 -0.00635026080019)
(0.000780984221367 0.00215209260316 -0.00627266069809)
(0.00077164754997 0.00212623371932 -0.00619769263906)
(0.000762637735013 0.00210124766617 -0.00612535442158)
(0.000754009684726 0.00207728898284 -0.00605608651843)
(0.000745803118053 0.00205446955621 -0.00599020753806)
(0.000738063622026 0.00203291640564 -0.00592808339173)
(0.000730782975828 0.00201260861461 -0.00586964776423)
(0.000723984293969 0.00199362418972 -0.00581508393387)
(0.000717674835847 0.001975970656 -0.00576445227391)
(0.000711860111743 0.00195968062282 -0.00571779415425)
(0.000706561361979 0.0019448029375 -0.005675281776)
(0.000701778427235 0.00193134538229 -0.00563691249732)
(0.000697508989658 0.00191930046895 -0.0056026678843)
(0.000693748326925 0.00190865745301 -0.00557250963254)
(0.000690495313052 0.00189941098085 -0.00554642907146)
(0.000687748706549 0.0018915613415 -0.00552441561497)
(0.000685488637092 0.0018850531217 -0.00550630977888)
(0.000683698660723 0.00187984460205 -0.00549197889419)
(0.000682394089222 0.00187597245131 -0.00548154685647)
(0.0006815643232 0.0018734112309 -0.00547492790969)
(0.000681187197027 0.00187209693825 -0.00547194450954)
(0.000681243863347 0.00187198454469 -0.00547244413451)
(0.00068174715091 0.001873111299 -0.00547652950732)
(0.000682680862566 0.00187542342659 -0.00548407205139)
(0.000684035391778 0.00187890734502 -0.00549499247383)
(0.000685799236709 0.00188352134414 -0.00550920005438)
(0.000687927768705 0.00188915194473 -0.00552633477328)
(0.000690407198006 0.00189574848675 -0.00554628797257)
(0.000693231671359 0.00190329511351 -0.0055690125953)
(0.000696401233812 0.00191178962478 -0.0055945093884)
(0.000699913367683 0.00192123429328 -0.00562275660441)
(0.000703745874908 0.00193156670034 -0.00565357616131)
(0.000707892923272 0.00194276996208 -0.00568692135088)
(0.00071234161595 0.00195481015476 -0.00572268832163)
(0.000717061526897 0.00196760429351 -0.00576063255741)
(0.000722040975005 0.00198111942475 -0.00580066036538)
(0.000727257661808 0.00199529803394 -0.0058425919987)
(0.000732691789083 0.00201008118593 -0.00588626916876)
(0.000738323367877 0.0020254192615 -0.00593153042442)
(0.000744124395439 0.00204123161373 -0.00597815143183)
(0.000750091270169 0.00205751310732 -0.00602610247037)
(0.000756210142556 0.00207421600104 -0.00607527389124)
(0.000762436285223 0.00209123163742 -0.0061253040378)
(0.000768758307417 0.00210851288065 -0.00617610403167)
(0.000775128053258 0.00212593748351 -0.00622728536566)
(0.000781515033128 0.00214342556648 -0.00627860246946)
(0.000787924122287 0.00216098040423 -0.00633009618327)
(0.000794327178233 0.00217852817585 -0.00638153985601)
(0.000800697328441 0.00219599337971 -0.00643271789508)
(0.00080700641742 0.00221330282922 -0.00648340343405)
(0.000813253408552 0.00223044680629 -0.00653358928396)
(0.000819415993296 0.00224736828872 -0.00658309553087)
(0.000825479095757 0.00226401908582 -0.00663180219058)
(0.000831430915241 0.00228037208546 -0.00667961358721)
(0.000837256355497 0.00229638009102 -0.00672640939911)
(0.000842953107214 0.00231203519773 -0.00677217133379)
(0.000848517617056 0.00232732991287 -0.00681687047091)
(0.000853934620154 0.00234222527656 -0.00686038369268)
(0.000859203216338 0.00235670490561 -0.00690270607275)
(0.00086432302649 0.0023707873184 -0.00694383132467)
(0.000869301801345 0.00238445603989 -0.00698382796904)
(0.000874143004165 0.00239778331532 -0.00702271343252)
(0.000878811680919 0.00241060556928 -0.00706021811735)
(0.000883359426706 0.00242311846814 -0.00709674755886)
(0.000887730651564 0.00243514041973 -0.00713185998002)
(0.000891954292538 0.00244676678793 -0.00716578520668)
(0.000896009328897 0.00245793799877 -0.0071983546791)
(0.000899874374761 0.002468612315 -0.00722939378249)
(0.000903517095584 0.00247867926821 -0.00725864635467)
(0.000906918118062 0.00248811952067 -0.00728595115278)
(0.000910044132471 0.00249680988467 -0.00731104584449)
(0.00091282219999 0.00250463160245 -0.00733333097873)
(0.000915175243935 0.00251130591755 -0.0073521984916)
(0.000917155770955 0.00251698397082 -0.0073680690336)
(0.000918571927318 0.00252125987845 -0.00737938134011)
(0.000919475255542 0.00252403011235 -0.00738659007466)
(0.000919850585297 0.00252567356238 -0.00738950368709)
(0.000919219308192 0.00252458223378 -0.00738432602766)
(0.000918304396172 0.00252243817067 -0.00737691521389)
(0.000918809459183 0.00252323679189 -0.00738107002669)
(0.00127198015699 0.00349781177933 -0.0102174172046)
(0.00126670145335 0.00348225669027 -0.0101751872255)
(0.00126493453002 0.00347924151832 -0.0101606885997)
(0.00126096242307 0.00346927023415 -0.0101286242394)
(0.00125800364313 0.00346230900309 -0.0101046625827)
(0.00125339094918 0.00345103726061 -0.0100673761889)
(0.00124779131989 0.00343667339558 -0.0100222247111)
(0.00124124235795 0.00341979478055 -0.0099694316662)
(0.00123351447195 0.00339954545827 -0.00990719003416)
(0.00122487682185 0.00337665920965 -0.00983766294955)
(0.0012154111783 0.00335136656774 -0.00976150631061)
(0.0012052578507 0.00332405632941 -0.0096798466879)
(0.00119451042511 0.00329498542031 -0.00959343589978)
(0.00118337978913 0.00326471634928 -0.00950397082454)
(0.00117197060639 0.00323356847732 -0.00941228696521)
(0.00116043706557 0.00320191653434 -0.00931963103527)
(0.00114890830751 0.0031702120319 -0.00922702441168)
(0.00113743383787 0.00313851128567 -0.0091348779835)
(0.00112618404208 0.00310736352576 -0.00904454703386)
(0.00111520040894 0.00307685454174 -0.00895636951846)
(0.00110460887518 0.00304735094189 -0.00887135368463)
(0.00109442079357 0.00301890171771 -0.00878958778082)
(0.00108469923325 0.00299168525026 -0.00871157760194)
(0.00107548963337 0.00296583578254 -0.008637686607)
(0.00106684465525 0.00294149690035 -0.00856833801123)
(0.00105876294845 0.00291867421343 -0.0085035194223)
(0.00105127450992 0.00289747166765 -0.00844346824068)
(0.00104439022175 0.00287790089135 -0.00838827491058)
(0.00103811766709 0.00286001394906 -0.00833799517336)
(0.00103247938259 0.00284385671973 -0.00829281272576)
(0.0010274785923 0.00282945278132 -0.00825275102765)
(0.00102311295549 0.00281679576276 -0.00821779126589)
(0.00101938123803 0.00280588559329 -0.00818792297653)
(0.00101627763755 0.00279670393106 -0.00816309994628)
(0.00101380202884 0.00278925689203 -0.00814332009894)
(0.00101193455494 0.00278348840966 -0.00812842417207)
(0.00101065867306 0.00277936159301 -0.00811827785757)
(0.0010099851277 0.00277689479233 -0.00811296931775)
(0.0010099020912 0.00277606221144 -0.00811240243)
(0.00101039094374 0.00277680770875 -0.00811642844533)
(0.00101142683779 0.00277907757526 -0.00812484534912)
(0.00101302031903 0.00278289987299 -0.00813773800681)
(0.00101514703005 0.0027881969525 -0.00815491253087)
(0.001017797196 0.0027949634536 -0.00817628683721)
(0.00102095477319 0.00280313810561 -0.00820173489394)
(0.00102456443762 0.00281258667714 -0.00823080933437)
(0.0010286066981 0.00282323523654 -0.00826335696074)
(0.00103305709125 0.00283501131121 -0.00829918212815)
(0.00103791811496 0.00284791359411 -0.00833830625623)
(0.00104319294618 0.00286196796377 -0.00838075202386)
(0.00104885229704 0.00287709619245 -0.00842628378795)
(0.00105488214008 0.00289325923005 -0.00847478894932)
(0.00106126139469 0.00291040042806 -0.00852609795511)
(0.00106795257624 0.00292841946827 -0.00857990924556)
(0.00107493582602 0.00294726036936 -0.00863606352931)
(0.00108217827784 0.00296683863219 -0.00869429582835)
(0.00108964963532 0.00298706493816 -0.00875436377665)
(0.0010973228608 0.00300787185189 -0.00881604904338)
(0.00110516061578 0.00302915191673 -0.00887905249208)
(0.00111314752899 0.00305087137043 -0.00894324924051)
(0.00112125703841 0.00307293954445 -0.00900842884481)
(0.0011294371943 0.00309523844803 -0.00907416988896)
(0.0011376638965 0.00311767786655 -0.00914028275095)
(0.00114588075533 0.00314011527066 -0.00920631239305)
(0.00115405016773 0.00316245612676 -0.00927195529178)
(0.00116216078869 0.0031846510647 -0.00933712332723)
(0.00117017506029 0.00320660334495 -0.00940151372479)
(0.00117806031888 0.00322821857488 -0.009464864865)
(0.00118578130213 0.003249408592 -0.00952689203753)
(0.00119332656499 0.00327012891133 -0.00958750546407)
(0.00120066088969 0.00329028919285 -0.00964642117351)
(0.00120777277675 0.00330984761196 -0.00970354848443)
(0.00121462700103 0.00332871418839 -0.00975860330357)
(0.00122122373852 0.00334688032567 -0.00981158854919)
(0.00122753964677 0.00336427915098 -0.00986231716339)
(0.00123357465969 0.0033809138927 -0.0099107880502)
(0.00123931699324 0.00339675662449 -0.00995690581017)
(0.00124475533964 0.0034117561584 -0.0100005829405)
(0.00124988923989 0.00342593491343 -0.0100418118305)
(0.00125471964103 0.00343924663148 -0.0100806081836)
(0.0012592565879 0.00345180419056 -0.0101170385605)
(0.00126346670774 0.00346342712975 -0.0101508495835)
(0.00126739539923 0.00347431202092 -0.0101823940409)
(0.00127099657311 0.00348429602481 -0.0102113076932)
(0.0012742931764 0.00349346532793 -0.0102377710418)
(0.00127726180814 0.0035017559166 -0.0102615960584)
(0.00127987860759 0.00350912623399 -0.0102825870908)
(0.00128210902179 0.00351545346665 -0.0103004711918)
(0.00128394037881 0.00352075305871 -0.0103151382388)
(0.00128533833735 0.00352489185824 -0.0103263187942)
(0.00128620715755 0.00352771814211 -0.0103332253262)
(0.00128648997882 0.00352899167716 -0.010335414989)
(0.00128624526641 0.00352887431534 -0.0103333572366)
(0.00128534113212 0.0035271694468 -0.0103259651362)
(0.0012838070264 0.00352364559596 -0.0103135270265)
(0.00128174927888 0.00351914427114 -0.0102968060361)
(0.00127879080655 0.0035121680152 -0.0102728494799)
(0.00127596977917 0.00350511694517 -0.0102500719974)
(0.00127465725727 0.00350102961189 -0.0102396081283)
(0.00159255211708 0.00438067765099 -0.0127922512823)
(0.0015857463069 0.00436125683119 -0.0127376992521)
(0.00158274958423 0.00435554541333 -0.0127132084396)
(0.00157796759139 0.00434409383598 -0.0126745147793)
(0.00157432972757 0.00433590197727 -0.0126449927446)
(0.00156914127928 0.00432378413275 -0.0126029593543)
(0.00156292036168 0.00430838420213 -0.0125527058485)
(0.00155572747994 0.00429036792196 -0.0124946355066)
(0.00154730976997 0.00426880905388 -0.0124267554073)
(0.00153793707727 0.00424440789233 -0.0123512400531)
(0.00152770266038 0.00421743736303 -0.0122688358308)
(0.00151677051109 0.00418833652971 -0.0121808620061)
(0.00150524569425 0.00415740515569 -0.0120881607349)
(0.00149333940756 0.00412519060185 -0.0119924340376)
(0.00148117948342 0.00409208758486 -0.0118947015957)
(0.00146890731469 0.00405843197838 -0.0117961079455)
(0.00145669624372 0.00402480963663 -0.0116980274012)
(0.00144458294933 0.00399123953382 -0.0116007681606)
(0.00143276448537 0.00395835637094 -0.0115058977152)
(0.00142127634443 0.00392623706312 -0.0114137045934)
(0.00141023511278 0.00389522212849 -0.0113251219957)
(0.00139968698455 0.00386546928436 -0.0112405159002)
(0.00138967859774 0.00383711456758 -0.0111602596449)
(0.00138026810978 0.00381033486441 -0.0110848175804)
(0.00137149066247 0.00378522422613 -0.0110144724179)
(0.00136335759114 0.00376183249629 -0.0109493121166)
(0.00135590346772 0.00374028156053 -0.0108896099387)
(0.00134914038348 0.00372058433927 -0.0108354663779)
(0.00134307918722 0.00370281443943 -0.0107869613264)
(0.00133773197795 0.0036869844027 -0.0107441954062)
(0.00133311004253 0.00367314643951 -0.0107072557731)
(0.00132920163474 0.00366127077735 -0.0106760476544)
(0.00132601835156 0.00365139447869 -0.010650663348)
(0.00132353681798 0.00364345226121 -0.0106309152561)
(0.00132175689987 0.0036374506764 -0.0106168011547)
(0.00132066695703 0.00363335477305 -0.010608228029)
(0.00132025499628 0.0036311468402 -0.0106050970117)
(0.0013205213136 0.00363081242102 -0.0106074130106)
(0.00132145400846 0.0036323292791 -0.0106150786945)
(0.00132302981059 0.00363562701686 -0.0106279082022)
(0.00132523659986 0.00364069412455 -0.0106458005612)
(0.00132806276187 0.00364749438986 -0.0106686631848)
(0.001331496785 0.00365598658087 -0.0106964051905)
(0.00133550302586 0.00366610114716 -0.0107287355496)
(0.00134007023615 0.00367778399431 -0.010765567746)
(0.00134515107255 0.00369093353759 -0.0108065167462)
(0.00135072256941 0.00370546449941 -0.0108514017401)
(0.00135672654176 0.00372120133787 -0.0108997579209)
(0.00136317513608 0.00373815427513 -0.0109516866981)
(0.0013700561518 0.00375631573046 -0.0110070857655)
(0.00137735765256 0.00377566521893 -0.0110658571975)
(0.00138504454192 0.00379610647388 -0.0111277190348)
(0.00139309341968 0.00381757544375 -0.0111924832619)
(0.00140146908685 0.00383998087019 -0.0112598662193)
(0.00141012478684 0.00386319251046 -0.011329492602)
(0.00141903698124 0.00388715306333 -0.0114011721029)
(0.00142817070852 0.00391175967278 -0.0114746249996)
(0.00143747903995 0.00393689050319 -0.0115494731333)
(0.0014469269791 0.00396244440268 -0.011625436203)
(0.001456479202 0.0039883362194 -0.0117022284764)
(0.00146611280734 0.00401447753254 -0.0117796702106)
(0.00147576865111 0.00404073964525 -0.0118572806961)
(0.00148540052753 0.00406696540824 -0.011934693762)
(0.0014949614013 0.00409303819302 -0.0120115294816)
(0.00150441591739 0.00411887436251 -0.0120875016083)
(0.00151371777315 0.00414432150117 -0.0121622423643)
(0.00152284341409 0.00416932309357 -0.0122355611756)
(0.00153175790385 0.00419377505291 -0.0123071787376)
(0.001540390798 0.00421749713464 -0.0123765269602)
(0.00154874247061 0.00424047106656 -0.0124436120465)
(0.00155677767717 0.00426260781514 -0.0125081495816)
(0.00156447327215 0.00428383088858 -0.0125699557731)
(0.00157179403042 0.00430405030661 -0.0126287465277)
(0.00157871678126 0.00432319080823 -0.0126843376351)
(0.00158524161577 0.00434124794371 -0.0127367306057)
(0.0015913451035 0.00435815913843 -0.0127857369226)
(0.00159702713979 0.00437392950483 -0.0128313548502)
(0.00160226478069 0.00438847270494 -0.0128734039385)
(0.0016070692278 0.00440184511487 -0.012911969929)
(0.00161141807211 0.00441393426642 -0.0129468812423)
(0.00161533289306 0.00442489314858 -0.0129782957021)
(0.00161876871178 0.00443450468294 -0.0130058674819)
(0.00162177082114 0.0044429706106 -0.0130299476148)
(0.00162429310839 0.00445012923788 -0.0130501714726)
(0.00162635842834 0.00445607125779 -0.0130667180271)
(0.00162794330982 0.00446073608387 -0.0130793980861)
(0.00162902379908 0.00446408670371 -0.013088014455)
(0.00162955364382 0.00446596824019 -0.0130922001916)
(0.00162951995232 0.00446640687356 -0.0130918415287)
(0.00162887668551 0.00446523731252 -0.0130865750593)
(0.00162756291134 0.00446241819765 -0.0130758904255)
(0.00162551006913 0.00445767727003 -0.0130592507733)
(0.0016227768385 0.00445116591059 -0.0130371291117)
(0.00161930097405 0.00444290691149 -0.013008993305)
(0.00161515920284 0.00443277363864 -0.0129755156199)
(0.00161051571332 0.00442179907602 -0.0129379185826)
(0.00160518209638 0.00440892626392 -0.0128947780467)
(0.00160028035697 0.00439668501126 -0.0128551987823)
(0.00159688950193 0.00438729129592 -0.0128279725779)
(0.00186164026604 0.00512279399409 -0.0149533952842)
(0.00185334793495 0.00509993911166 -0.0148867941824)
(0.00184881668576 0.00509072439684 -0.0148498582828)
(0.0018428476423 0.0050769025847 -0.0148014812829)
(0.00183797936646 0.00506604440678 -0.0147619569023)
(0.00183168789879 0.00505167644142 -0.014710933555)
(0.00182436449096 0.00503400054377 -0.0146516988661)
(0.00181610572608 0.00501373077374 -0.0145849543497)
(0.00180665817604 0.00498996844334 -0.0145086977321)
(0.00179631589984 0.00496343817301 -0.0144253050171)
(0.00178516027023 0.00493438993256 -0.0143354255045)
(0.0017733673431 0.00490327703157 -0.0142404785038)
(0.00176104187125 0.00487041447598 -0.0141413009963)
(0.00174841870184 0.00483640150305 -0.0140397871515)
(0.00173561380668 0.00480160864276 -0.0139368599816)
(0.00172278024928 0.00476640523359 -0.0138337575423)
(0.00171005625927 0.00473128165835 -0.0137315719187)
(0.00169753678146 0.00469642847575 -0.0136310774589)
(0.0016853836872 0.0046623883237 -0.013533558268)
(0.00167364388583 0.00462928398453 -0.0134393921837)
(0.00166245737467 0.00459751949771 -0.0133497006019)
(0.0016518350103 0.00456716809146 -0.0132645635436)
(0.00164183506259 0.00453840116092 -0.0131844472232)
(0.0016325038187 0.00451137187904 -0.0131097191616)
(0.0016238881027 0.00448620719388 -0.0130407557821)
(0.00161599906771 0.00446296584841 -0.012977642023)
(0.00160887120817 0.00444177351527 -0.0129206498608)
(0.00160249318098 0.00442258072959 -0.0128696912079)
(0.00159689905028 0.00440553418179 -0.0128250309059)
(0.00159207753113 0.00439058156679 -0.0127865818314)
(0.0015880398193 0.00437777954472 -0.0127544296296)
(0.0015847975331 0.00436716413661 -0.0127286669518)
(0.00158232712387 0.00435867854301 -0.0127091033207)
(0.00158061688354 0.00435229112633 -0.0126956445966)
(0.00157969005087 0.0043480738245 -0.0126884761179)
(0.00157949988359 0.0043458956942 -0.0126872228176)
(0.00158005765849 0.00434580943815 -0.0126919716842)
(0.00158134034015 0.00434773318704 -0.0127025407507)
(0.0015833476857 0.00435167880361 -0.01271892599)
(0.00158604472568 0.00435754381886 -0.0127408475484)
(0.00158941921373 0.00436532288977 -0.0127682023601)
(0.0015934478974 0.00437494474718 -0.0128008048595)