/*--------------------------------*- C++ -*----------------------------------*\
| =========                 |                                                 |
| \\      /  F ield         | OpenFOAM: The Open Source CFD Toolbox           |
|  \\    /   O peration     | Version:  2306                                  |
|   \\  /    A nd           | Website:  www.openfoam.com                      |
|    \\/     M anipulation  |                                                 |
\*---------------------------------------------------------------------------*/
FoamFile
{
    version     2.0;
    format      ascii;
    arch        "LSB;label=32;scalar=64";
    class       volScalarField;
    location    "20000";
    object      nut;
}
// * * * * * * * * * * * * * * * * * * * * * * * * * * * * * * * * * * * * * //

dimensions      [0 2 -1 0 0 0 0];

internalField   nonuniform List<scalar> 
14751
(
7.43993e-10
7.37956e-10
7.38611e-10
7.31048e-10
7.2533e-10
7.15138e-10
7.03426e-10
6.90014e-10
6.74631e-10
6.57999e-10
6.40296e-10
6.21739e-10
6.02495e-10
5.83104e-10
5.63693e-10
5.44541e-10
5.25833e-10
5.07595e-10
4.90053e-10
4.73251e-10
4.57354e-10
4.4228e-10
4.28078e-10
4.14805e-10
4.02502e-10
3.91045e-10
3.80432e-10
3.7063e-10
3.61612e-10
3.53404e-10
3.45973e-10
3.39286e-10
3.33313e-10
3.28027e-10
3.23414e-10
3.19408e-10
3.15973e-10
3.13136e-10
3.10875e-10
3.09129e-10
3.07854e-10
3.07117e-10
3.06893e-10
3.07184e-10
3.07979e-10
3.09194e-10
3.10833e-10
3.12893e-10
3.15383e-10
3.18302e-10
3.21628e-10
3.25378e-10
3.2955e-10
3.34108e-10
3.39056e-10
3.44378e-10
3.50068e-10
3.56117e-10
3.62498e-10
3.6926e-10
3.76403e-10
3.83875e-10
3.91684e-10
3.99713e-10
4.07942e-10
4.16429e-10
4.25155e-10
4.34076e-10
4.43157e-10
4.52441e-10
4.61896e-10
4.71518e-10
4.81299e-10
4.91222e-10
5.01294e-10
5.11516e-10
5.21869e-10
5.32372e-10
5.4301e-10
5.53828e-10
5.64819e-10
5.75928e-10
5.87271e-10
5.98708e-10
6.10306e-10
6.22049e-10
6.33893e-10
6.45751e-10
6.57559e-10
6.69287e-10
6.80742e-10
6.91789e-10
7.02611e-10
7.12353e-10
7.21232e-10
7.29138e-10
7.3425e-10
7.3612e-10
7.43394e-10
2.95176e-09
2.91263e-09
2.90325e-09
2.88437e-09
2.87031e-09
2.85395e-09
2.83405e-09
2.81301e-09
2.78906e-09
2.76361e-09
2.73647e-09
2.70817e-09
2.67867e-09
2.64879e-09
2.61915e-09
2.58962e-09
2.5613e-09
2.53338e-09
2.50678e-09
2.48145e-09
2.45807e-09
2.43632e-09
2.4163e-09
2.39815e-09
2.38222e-09
2.36796e-09
2.35532e-09
2.34429e-09
2.33478e-09
2.32696e-09
2.32099e-09
2.31671e-09
2.31409e-09
2.31308e-09
2.31375e-09
2.31583e-09
2.31906e-09
2.32389e-09
2.33007e-09
2.33744e-09
2.3458e-09
2.35554e-09
2.36673e-09
2.37922e-09
2.39303e-09
2.40763e-09
2.42272e-09
2.43808e-09
2.45391e-09
2.47055e-09
2.48792e-09
2.50606e-09
2.52497e-09
2.54445e-09
2.56442e-09
2.58482e-09
2.60557e-09
2.62661e-09
2.64785e-09
2.66947e-09
2.69155e-09
2.71379e-09
2.73603e-09
2.75773e-09
2.77872e-09
2.79931e-09
2.81945e-09
2.83894e-09
2.85762e-09
2.87568e-09
2.89309e-09
2.90978e-09
2.92573e-09
2.94084e-09
2.95514e-09
2.96855e-09
2.98096e-09
2.99216e-09
3.00269e-09
3.012e-09
3.0206e-09
3.02776e-09
3.03409e-09
3.03917e-09
3.04313e-09
3.04613e-09
3.04844e-09
3.04951e-09
3.04952e-09
3.04827e-09
3.04618e-09
3.04244e-09
3.03753e-09
3.031e-09
3.0205e-09
3.00945e-09
2.99127e-09
2.96674e-09
2.94718e-09
4.98257e-08
4.91971e-08
4.91878e-08
4.92565e-08
4.94797e-08
4.97737e-08
5.00542e-08
5.03608e-08
5.06517e-08
5.09387e-08
5.12099e-08
5.14705e-08
5.17143e-08
5.19435e-08
5.21651e-08
5.23707e-08
5.25789e-08
5.27697e-08
5.29602e-08
5.31464e-08
5.33409e-08
5.35387e-08
5.37408e-08
5.39482e-08
5.41675e-08
5.43918e-08
5.46209e-08
5.48555e-08
5.50952e-08
5.53424e-08
5.56028e-08
5.58741e-08
5.6156e-08
5.64493e-08
5.6757e-08
5.70743e-08
5.73964e-08
5.77347e-08
5.80829e-08
5.84406e-08
5.88063e-08
5.91789e-08
5.95594e-08
5.99506e-08
6.03535e-08
6.07571e-08
6.11527e-08
6.15345e-08
6.19073e-08
6.22808e-08
6.26538e-08
6.30254e-08
6.33959e-08
6.37607e-08
6.41174e-08
6.44645e-08
6.4799e-08
6.51195e-08
6.54234e-08
6.57112e-08
6.59851e-08
6.62372e-08
6.64638e-08
6.6657e-08
6.68106e-08
6.69289e-08
6.70103e-08
6.70515e-08
6.70479e-08
6.70024e-08
6.69144e-08
6.6782e-08
6.66048e-08
6.63809e-08
6.61111e-08
6.57938e-08
6.54275e-08
6.50069e-08
6.45473e-08
6.40351e-08
6.34854e-08
6.28814e-08
6.22408e-08
6.15581e-08
6.08388e-08
6.009e-08
5.93223e-08
5.85284e-08
5.77181e-08
5.68918e-08
5.60665e-08
5.52253e-08
5.43872e-08
5.35706e-08
5.27284e-08
5.19598e-08
5.1158e-08
5.03891e-08
4.97557e-08
3.3902e-07
3.35942e-07
3.37417e-07
3.39995e-07
3.44263e-07
3.49384e-07
3.54533e-07
3.6001e-07
3.65545e-07
3.71211e-07
3.76872e-07
3.82538e-07
3.88172e-07
3.9373e-07
3.99227e-07
4.04594e-07
4.09926e-07
4.15077e-07
4.20147e-07
4.25096e-07
4.29991e-07
4.34799e-07
4.39516e-07
4.44134e-07
4.48686e-07
4.53138e-07
4.57488e-07
4.61738e-07
4.65897e-07
4.69958e-07
4.73973e-07
4.77923e-07
4.81806e-07
4.85632e-07
4.8943e-07
4.93165e-07
4.96805e-07
5.00458e-07
5.04054e-07
5.0752e-07
5.1084e-07
5.14098e-07
5.17306e-07
5.20463e-07
5.23581e-07
5.26587e-07
5.29411e-07
5.32e-07
5.34395e-07
5.36683e-07
5.38857e-07
5.40906e-07
5.42835e-07
5.44613e-07
5.46223e-07
5.47654e-07
5.48884e-07
5.49902e-07
5.50688e-07
5.51233e-07
5.51553e-07
5.51595e-07
5.51336e-07
5.50745e-07
5.49769e-07
5.4843e-07
5.46716e-07
5.44613e-07
5.42087e-07
5.39156e-07
5.35818e-07
5.32064e-07
5.27896e-07
5.23304e-07
5.18305e-07
5.12891e-07
5.07063e-07
5.00773e-07
4.94179e-07
4.87162e-07
4.79861e-07
4.72145e-07
4.64176e-07
4.55929e-07
4.47463e-07
4.38829e-07
4.30059e-07
4.21209e-07
4.12366e-07
4.03557e-07
3.94891e-07
3.86299e-07
3.7793e-07
3.69936e-07
3.62159e-07
3.55171e-07
3.48509e-07
3.42724e-07
3.38485e-07
1.15126e-06
1.14591e-06
1.15495e-06
1.16872e-06
1.18914e-06
1.2133e-06
1.23827e-06
1.26505e-06
1.29228e-06
1.31943e-06
1.34682e-06
1.37439e-06
1.40221e-06
1.42986e-06
1.45731e-06
1.48435e-06
1.51113e-06
1.5372e-06
1.56277e-06
1.58769e-06
1.61211e-06
1.63591e-06
1.65903e-06
1.68142e-06
1.70311e-06
1.72404e-06
1.74419e-06
1.76353e-06
1.78215e-06
1.79991e-06
1.81706e-06
1.83349e-06
1.84919e-06
1.86418e-06
1.87867e-06
1.89247e-06
1.90542e-06
1.91734e-06
1.9285e-06
1.93896e-06
1.94866e-06
1.95777e-06
1.96629e-06
1.97423e-06
1.98163e-06
1.9883e-06
1.99402e-06
1.99857e-06
2.00208e-06
2.00497e-06
2.00721e-06
2.0088e-06
2.00977e-06
2.01005e-06
2.0096e-06
2.00842e-06
2.00644e-06
2.00367e-06
2.00003e-06
1.99552e-06
1.99017e-06
1.98388e-06
1.97658e-06
1.96824e-06
1.95872e-06
1.94807e-06
1.93627e-06
1.92328e-06
1.90904e-06
1.89357e-06
1.8769e-06
1.859e-06
1.83989e-06
1.81954e-06
1.79804e-06
1.77541e-06
1.75159e-06
1.72629e-06
1.69953e-06
1.67157e-06
1.64279e-06
1.61299e-06
1.58256e-06
1.55149e-06
1.51999e-06
1.48823e-06
1.45638e-06
1.42456e-06
1.39304e-06
1.36194e-06
1.33155e-06
1.30176e-06
1.27303e-06
1.24585e-06
1.22004e-06
1.19713e-06
1.17622e-06
1.15921e-06
1.14843e-06
2.52629e-06
2.52482e-06
2.55129e-06
2.58868e-06
2.64074e-06
2.7013e-06
2.76439e-06
2.83174e-06
2.90047e-06
2.96977e-06
3.0395e-06
3.10921e-06
3.17766e-06
3.24551e-06
3.31252e-06
3.37841e-06
3.44332e-06
3.50623e-06
3.56745e-06
3.62668e-06
3.68407e-06
3.73941e-06
3.79255e-06
3.84336e-06
3.89189e-06
3.93801e-06
3.98169e-06
4.02292e-06
4.06182e-06
4.09817e-06
4.1325e-06
4.16467e-06
4.19451e-06
4.22194e-06
4.24665e-06
4.26901e-06
4.28908e-06
4.3069e-06
4.32275e-06
4.33674e-06
4.34886e-06
4.35928e-06
4.36807e-06
4.37524e-06
4.38087e-06
4.38472e-06
4.38651e-06
4.38246e-06
4.37253e-06
4.36128e-06
4.3487e-06
4.33488e-06
4.31989e-06
4.3037e-06
4.28632e-06
4.26778e-06
4.24804e-06
4.22712e-06
4.20497e-06
4.18163e-06
4.15715e-06
4.13139e-06
4.10434e-06
4.07592e-06
4.04601e-06
4.01467e-06
3.98187e-06
3.94756e-06
3.91166e-06
3.87422e-06
3.83525e-06
3.79473e-06
3.75265e-06
3.70883e-06
3.6629e-06
3.61492e-06
3.56538e-06
3.51411e-06
3.46134e-06
3.40731e-06
3.35238e-06
3.29643e-06
3.23999e-06
3.18316e-06
3.12629e-06
3.06971e-06
3.01367e-06
2.95841e-06
2.90435e-06
2.85174e-06
2.80089e-06
2.75175e-06
2.70515e-06
2.66162e-06
2.62149e-06
2.58651e-06
2.55606e-06
2.52999e-06
2.51628e-06
4.1995e-06
4.2218e-06
4.28455e-06
4.36536e-06
4.47051e-06
4.58701e-06
4.70933e-06
4.83791e-06
4.96847e-06
5.09998e-06
5.23144e-06
5.36191e-06
5.48995e-06
5.61543e-06
5.73756e-06
5.85557e-06
5.96934e-06
6.07837e-06
6.18283e-06
6.2823e-06
6.37685e-06
6.46607e-06
6.54982e-06
6.62797e-06
6.70059e-06
6.76754e-06
6.82889e-06
6.88467e-06
6.93492e-06
6.97969e-06
7.01906e-06
7.0532e-06
7.08234e-06
7.10659e-06
7.12611e-06
7.14124e-06
7.15213e-06
7.15917e-06
7.16265e-06
7.16277e-06
7.15962e-06
7.15348e-06
7.14445e-06
7.13263e-06
7.11812e-06
7.10075e-06
7.08046e-06
7.05737e-06
7.03199e-06
7.00487e-06
6.9761e-06
6.94578e-06
6.91406e-06
6.88091e-06
6.84637e-06
6.81047e-06
6.7732e-06
6.73456e-06
6.69451e-06
6.65305e-06
6.61025e-06
6.56595e-06
6.52008e-06
6.47257e-06
6.42327e-06
6.37219e-06
6.31928e-06
6.26445e-06
6.20756e-06
6.14864e-06
6.08765e-06
6.02445e-06
5.95835e-06
5.8893e-06
5.81768e-06
5.74367e-06
5.6677e-06
5.58967e-06
5.50992e-06
5.42867e-06
5.34632e-06
5.26282e-06
5.17887e-06
5.09462e-06
5.01063e-06
4.9273e-06
4.84502e-06
4.76412e-06
4.68519e-06
4.60857e-06
4.53462e-06
4.46342e-06
4.39618e-06
4.33379e-06
4.27716e-06
4.22904e-06
4.19023e-06
4.1688e-06
4.17345e-06
6.25451e-06
6.30449e-06
6.41096e-06
6.54429e-06
6.71234e-06
6.89587e-06
7.08729e-06
7.28626e-06
7.48652e-06
7.68641e-06
7.88416e-06
8.07852e-06
8.26754e-06
8.45044e-06
8.62598e-06
8.7932e-06
8.95222e-06
9.10235e-06
9.24414e-06
9.37722e-06
9.50141e-06
9.61634e-06
9.72194e-06
9.81818e-06
9.90529e-06
9.98327e-06
1.00524e-05
1.01127e-05
1.01645e-05
1.02082e-05
1.02438e-05
1.0272e-05
1.02931e-05
1.03075e-05
1.03156e-05
1.03179e-05
1.03146e-05
1.03064e-05
1.02935e-05
1.02764e-05
1.02553e-05
1.02304e-05
1.02021e-05
1.01705e-05
1.01359e-05
1.00984e-05
1.00584e-05
1.00165e-05
9.97305e-06
9.92785e-06
9.88112e-06
9.83301e-06
9.78366e-06
9.73305e-06
9.68126e-06
9.6283e-06
9.57414e-06
9.51879e-06
9.46212e-06
9.40391e-06
9.34437e-06
9.28329e-06
9.22058e-06
9.15609e-06
9.08962e-06
9.02115e-06
8.95051e-06
8.87756e-06
8.80207e-06
8.72396e-06
8.64298e-06
8.55816e-06
8.46993e-06
8.37854e-06
8.28433e-06
8.18751e-06
8.08839e-06
7.98696e-06
7.88356e-06
7.77843e-06
7.67201e-06
7.56427e-06
7.45604e-06
7.34755e-06
7.23945e-06
7.13225e-06
7.02636e-06
6.92232e-06
6.82083e-06
6.72233e-06
6.62727e-06
6.53581e-06
6.44972e-06
6.37038e-06
6.29958e-06
6.24157e-06
6.19891e-06
6.18355e-06
6.20531e-06
8.72498e-06
8.80913e-06
8.9681e-06
9.1622e-06
9.40074e-06
9.65792e-06
9.92376e-06
1.01967e-05
1.04682e-05
1.07359e-05
1.09973e-05
1.12507e-05
1.1494e-05
1.17267e-05
1.19473e-05
1.21543e-05
1.23476e-05
1.25263e-05
1.2692e-05
1.28455e-05
1.29858e-05
1.31127e-05
1.32263e-05
1.33269e-05
1.34149e-05
1.34906e-05
1.35545e-05
1.3607e-05
1.36485e-05
1.36798e-05
1.37014e-05
1.37139e-05
1.3718e-05
1.37142e-05
1.37032e-05
1.36856e-05
1.36618e-05
1.36325e-05
1.35982e-05
1.35593e-05
1.35161e-05
1.34693e-05
1.34191e-05
1.33658e-05
1.331e-05
1.3252e-05
1.31924e-05
1.31315e-05
1.30694e-05
1.30061e-05
1.29418e-05
1.28768e-05
1.2811e-05
1.27447e-05
1.26777e-05
1.26101e-05
1.25419e-05
1.2473e-05
1.24033e-05
1.23327e-05
1.22613e-05
1.21886e-05
1.21147e-05
1.20391e-05
1.19618e-05
1.18824e-05
1.18008e-05
1.17166e-05
1.16295e-05
1.15391e-05
1.14446e-05
1.13464e-05
1.12448e-05
1.11399e-05
1.10321e-05
1.09213e-05
1.08078e-05
1.06916e-05
1.05731e-05
1.04524e-05
1.03299e-05
1.02057e-05
1.00806e-05
9.95484e-06
9.82915e-06
9.70402e-06
9.579e-06
9.45576e-06
9.33532e-06
9.21814e-06
9.10479e-06
8.99557e-06
8.89294e-06
8.79899e-06
8.71667e-06
8.65201e-06
8.60898e-06
8.603e-06
8.646e-06
1.16107e-05
1.17308e-05
1.19452e-05
1.22006e-05
1.25069e-05
1.28292e-05
1.31598e-05
1.3496e-05
1.3827e-05
1.41501e-05
1.4462e-05
1.47574e-05
1.50358e-05
1.53023e-05
1.55561e-05
1.5795e-05
1.6014e-05
1.62089e-05
1.63853e-05
1.65426e-05
1.66827e-05
1.68059e-05
1.69125e-05
1.70032e-05
1.70787e-05
1.71396e-05
1.71867e-05
1.72207e-05
1.72425e-05
1.72528e-05
1.72526e-05
1.72427e-05
1.72238e-05
1.71968e-05
1.71625e-05
1.71214e-05
1.70743e-05
1.70219e-05
1.69648e-05
1.69035e-05
1.68386e-05
1.67707e-05
1.67002e-05
1.66276e-05
1.65535e-05
1.64783e-05
1.64024e-05
1.63262e-05
1.62495e-05
1.61726e-05
1.60958e-05
1.60192e-05
1.59429e-05
1.58669e-05
1.57913e-05
1.57161e-05
1.56411e-05
1.55664e-05
1.54916e-05
1.54167e-05
1.53415e-05
1.52657e-05
1.5189e-05
1.51111e-05
1.50317e-05
1.49503e-05
1.48666e-05
1.478e-05
1.46901e-05
1.45961e-05
1.44982e-05
1.4397e-05
1.42924e-05
1.41844e-05
1.40729e-05
1.3958e-05
1.38397e-05
1.3718e-05
1.35931e-05
1.34653e-05
1.3335e-05
1.32021e-05
1.30675e-05
1.29312e-05
1.27941e-05
1.26566e-05
1.25194e-05
1.23831e-05
1.22486e-05
1.21166e-05
1.19878e-05
1.18627e-05
1.17448e-05
1.1637e-05
1.15438e-05
1.14731e-05
1.14303e-05
1.14349e-05
1.15007e-05
1.48723e-05
1.50171e-05
1.52709e-05
1.55709e-05
1.59231e-05
1.62654e-05
1.66156e-05
1.69761e-05
1.73339e-05
1.76841e-05
1.80244e-05
1.83527e-05
1.86661e-05
1.89634e-05
1.92438e-05
1.95049e-05
1.97481e-05
1.99704e-05
2.01731e-05
2.03213e-05
2.04469e-05
2.05529e-05
2.06405e-05
2.07104e-05
2.07638e-05
2.08015e-05
2.08245e-05
2.0834e-05
2.08309e-05
2.08164e-05
2.07914e-05
2.07569e-05
2.07138e-05
2.06631e-05
2.06056e-05
2.05422e-05
2.04734e-05
2.04003e-05
2.03236e-05
2.02438e-05
2.01616e-05
2.00776e-05
1.99924e-05
1.99065e-05
1.98205e-05
1.97348e-05
1.96497e-05
1.95654e-05
1.94821e-05
1.94001e-05
1.93195e-05
1.92405e-05
1.91631e-05
1.90873e-05
1.90132e-05
1.89407e-05
1.88698e-05
1.88001e-05
1.87315e-05
1.86637e-05
1.85963e-05
1.85289e-05
1.84612e-05
1.83928e-05
1.8323e-05
1.82516e-05
1.81778e-05
1.81009e-05
1.80202e-05
1.79355e-05
1.78472e-05
1.77555e-05
1.76601e-05
1.75608e-05
1.74574e-05
1.73497e-05
1.72371e-05
1.71196e-05
1.69974e-05
1.68704e-05
1.67394e-05
1.66042e-05
1.64661e-05
1.63245e-05
1.61802e-05
1.60337e-05
1.58857e-05
1.57365e-05
1.55874e-05
1.54391e-05
1.52925e-05
1.51486e-05
1.50115e-05
1.48853e-05
1.47758e-05
1.46933e-05
1.46452e-05
1.46562e-05
1.47403e-05
1.84084e-05
1.85355e-05
1.87516e-05
1.90353e-05
1.93828e-05
1.9769e-05
2.01627e-05
2.05652e-05
2.09621e-05
2.13477e-05
2.17194e-05
2.20749e-05
2.24114e-05
2.27274e-05
2.30225e-05
2.32942e-05
2.35442e-05
2.37691e-05
2.39437e-05
2.40657e-05
2.41672e-05
2.42482e-05
2.43101e-05
2.43541e-05
2.43814e-05
2.4393e-05
2.43904e-05
2.43746e-05
2.4347e-05
2.43088e-05
2.42609e-05
2.42046e-05
2.41409e-05
2.40706e-05
2.39948e-05
2.39143e-05
2.38299e-05
2.37427e-05
2.36533e-05
2.35626e-05
2.34712e-05
2.33798e-05
2.32889e-05
2.31991e-05
2.31109e-05
2.30246e-05
2.29405e-05
2.2859e-05
2.27803e-05
2.27047e-05
2.26323e-05
2.25632e-05
2.24973e-05
2.24346e-05
2.23749e-05
2.23184e-05
2.22647e-05
2.22137e-05
2.21649e-05
2.21181e-05
2.20725e-05
2.20276e-05
2.19828e-05
2.19374e-05
2.18909e-05
2.18429e-05
2.17924e-05
2.17389e-05
2.16816e-05
2.16203e-05
2.15546e-05
2.14842e-05
2.14088e-05
2.13282e-05
2.12424e-05
2.11511e-05
2.10524e-05
2.09461e-05
2.0832e-05
2.071e-05
2.05807e-05
2.0444e-05
2.03022e-05
2.01544e-05
2.0001e-05
1.98424e-05
1.96793e-05
1.95122e-05
1.93426e-05
1.91711e-05
1.89992e-05
1.88278e-05
1.86623e-05
1.85072e-05
1.8369e-05
1.82598e-05
1.81894e-05
1.81881e-05
1.82715e-05
2.19834e-05
2.20747e-05
2.23095e-05
2.26209e-05
2.29993e-05
2.34179e-05
2.38435e-05
2.4276e-05
2.46997e-05
2.51083e-05
2.54992e-05
2.587e-05
2.62179e-05
2.65414e-05
2.68405e-05
2.71121e-05
2.73549e-05
2.7496e-05
2.76114e-05
2.77061e-05
2.77804e-05
2.78348e-05
2.78708e-05
2.78895e-05
2.78926e-05
2.7881e-05
2.78564e-05
2.78199e-05
2.77729e-05
2.77167e-05
2.76524e-05
2.75813e-05
2.75044e-05
2.74227e-05
2.73373e-05
2.7249e-05
2.71587e-05
2.70674e-05
2.69759e-05
2.68851e-05
2.67958e-05
2.67086e-05
2.66241e-05
2.65428e-05
2.64651e-05
2.63913e-05
2.63216e-05
2.62566e-05
2.61965e-05
2.61415e-05
2.60918e-05
2.60474e-05
2.60082e-05
2.5974e-05
2.59443e-05
2.5919e-05
2.58978e-05
2.58805e-05
2.58666e-05
2.58557e-05
2.58472e-05
2.584e-05
2.5833e-05
2.5825e-05
2.58153e-05
2.58033e-05
2.57884e-05
2.57701e-05
2.57486e-05
2.57222e-05
2.56888e-05
2.56477e-05
2.55982e-05
2.55397e-05
2.5473e-05
2.53991e-05
2.53143e-05
2.52179e-05
2.51095e-05
2.49886e-05
2.48552e-05
2.47081e-05
2.45491e-05
2.43796e-05
2.42017e-05
2.40158e-05
2.38226e-05
2.36228e-05
2.34184e-05
2.32101e-05
2.29994e-05
2.27876e-05
2.25807e-05
2.23835e-05
2.21985e-05
2.20363e-05
2.19071e-05
2.1837e-05
2.18493e-05
2.56689e-05
2.57584e-05
2.60026e-05
2.63318e-05
2.67295e-05
2.71688e-05
2.76145e-05
2.80649e-05
2.85037e-05
2.8924e-05
2.9323e-05
2.96983e-05
3.00478e-05
3.03688e-05
3.06638e-05
3.08316e-05
3.09639e-05
3.10654e-05
3.11512e-05
3.1221e-05
3.12712e-05
3.13031e-05
3.13182e-05
3.13179e-05
3.13036e-05
3.12765e-05
3.12382e-05
3.11897e-05
3.11326e-05
3.10682e-05
3.09976e-05
3.09224e-05
3.08435e-05
3.07621e-05
3.06792e-05
3.05957e-05
3.05126e-05
3.04307e-05
3.03508e-05
3.02739e-05
3.02008e-05
3.01323e-05
3.00688e-05
3.00112e-05
2.99597e-05
2.99145e-05
2.98759e-05
2.98439e-05
2.98188e-05
2.9801e-05
2.97904e-05
2.97873e-05
2.97916e-05
2.9803e-05
2.98207e-05
2.98438e-05
2.98714e-05
2.99032e-05
2.99386e-05
2.99774e-05
3.0019e-05
3.00627e-05
3.01069e-05
3.01482e-05
3.01859e-05
3.02187e-05
3.02456e-05
3.02668e-05
3.02831e-05
3.02932e-05
3.02919e-05
3.02782e-05
3.02504e-05
3.0207e-05
3.01467e-05
3.00695e-05
2.99773e-05
2.98695e-05
2.97458e-05
2.96056e-05
2.94486e-05
2.92723e-05
2.9057e-05
2.88168e-05
2.85687e-05
2.8314e-05
2.80539e-05
2.77893e-05
2.75224e-05
2.72545e-05
2.69878e-05
2.67226e-05
2.64635e-05
2.62174e-05
2.59879e-05
2.57915e-05
2.56319e-05
2.55379e-05
2.5536e-05
2.94707e-05
2.95511e-05
2.97954e-05
3.01323e-05
3.05387e-05
3.09875e-05
3.14424e-05
3.19002e-05
3.23438e-05
3.27659e-05
3.31641e-05
3.35351e-05
3.38758e-05
3.4063e-05
3.42144e-05
3.43299e-05
3.44255e-05
3.451e-05
3.45791e-05
3.46314e-05
3.4666e-05
3.46846e-05
3.46887e-05
3.46797e-05
3.46591e-05
3.46283e-05
3.45885e-05
3.4541e-05
3.4487e-05
3.44279e-05
3.43649e-05
3.42996e-05
3.42331e-05
3.41668e-05
3.41016e-05
3.40388e-05
3.39791e-05
3.39236e-05
3.38727e-05
3.3827e-05
3.37875e-05
3.3755e-05
3.37302e-05
3.37137e-05
3.37064e-05
3.37084e-05
3.372e-05
3.37407e-05
3.37699e-05
3.38076e-05
3.38539e-05
3.39088e-05
3.39727e-05
3.40456e-05
3.41271e-05
3.42153e-05
3.4307e-05
3.44015e-05
3.44976e-05
3.45946e-05
3.46919e-05
3.479e-05
3.4889e-05
3.49816e-05
3.50667e-05
3.51423e-05
3.52063e-05
3.52566e-05
3.52911e-05
3.53099e-05
3.53135e-05
3.53001e-05
3.52677e-05
3.52139e-05
3.5135e-05
3.49845e-05
3.4812e-05
3.46245e-05
3.44223e-05
3.42052e-05
3.39746e-05
3.37297e-05
3.34725e-05
3.32035e-05
3.2924e-05
3.26355e-05
3.23394e-05
3.20367e-05
3.17299e-05
3.14204e-05
3.11108e-05
3.08014e-05
3.04974e-05
3.02064e-05
2.99331e-05
2.96951e-05
2.94976e-05
2.93719e-05
2.93475e-05
3.33604e-05
3.34247e-05
3.36603e-05
3.3996e-05
3.44016e-05
3.48505e-05
3.53055e-05
3.57619e-05
3.62023e-05
3.66187e-05
3.69868e-05
3.71972e-05
3.73682e-05
3.75001e-05
3.76111e-05
3.77147e-05
3.78056e-05
3.78854e-05
3.79493e-05
3.79968e-05
3.80295e-05
3.80486e-05
3.80559e-05
3.80528e-05
3.8041e-05
3.80218e-05
3.79967e-05
3.79669e-05
3.79337e-05
3.7898e-05
3.78607e-05
3.78235e-05
3.77878e-05
3.77548e-05
3.77259e-05
3.77024e-05
3.76854e-05
3.76761e-05
3.76751e-05
3.76822e-05
3.76976e-05
3.7722e-05
3.77559e-05
3.78002e-05
3.78556e-05
3.79232e-05
3.8004e-05
3.80976e-05
3.82012e-05
3.83132e-05
3.84332e-05
3.85609e-05
3.86959e-05
3.88385e-05
3.89903e-05
3.91507e-05
3.93119e-05
3.94726e-05
3.96305e-05
3.97835e-05
3.99287e-05
4.0064e-05
4.01885e-05
4.03034e-05
4.0406e-05
4.04941e-05
4.05649e-05
4.0614e-05
4.06148e-05
4.05444e-05
4.04591e-05
4.03581e-05
4.02408e-05
4.01064e-05
3.99547e-05
3.97859e-05
3.95993e-05
3.93945e-05
3.91718e-05
3.8931e-05
3.86736e-05
3.83986e-05
3.81082e-05
3.7803e-05
3.74845e-05
3.71544e-05
3.68144e-05
3.64656e-05
3.61109e-05
3.57518e-05
3.53912e-05
3.50297e-05
3.4673e-05
3.43296e-05
3.40048e-05
3.37176e-05
3.34748e-05
3.33099e-05
3.3255e-05
3.73185e-05
3.73601e-05
3.75796e-05
3.79063e-05
3.83036e-05
3.87454e-05
3.91939e-05
3.96429e-05
4.00247e-05
4.02536e-05
4.04435e-05
4.0595e-05
4.07272e-05
4.08568e-05
4.0975e-05
4.10886e-05
4.11907e-05
4.12795e-05
4.13547e-05
4.14164e-05
4.14666e-05
4.15058e-05
4.15359e-05
4.15584e-05
4.1575e-05
4.15872e-05
4.15968e-05
4.16053e-05
4.16146e-05
4.16251e-05
4.16372e-05
4.16517e-05
4.16699e-05
4.1693e-05
4.17225e-05
4.17597e-05
4.18061e-05
4.18639e-05
4.19345e-05
4.2018e-05
4.21118e-05
4.22157e-05
4.23298e-05
4.24543e-05
4.25896e-05
4.27364e-05
4.28967e-05
4.30735e-05
4.32618e-05
4.3457e-05
4.36578e-05
4.38625e-05
4.40689e-05
4.42745e-05
4.44776e-05
4.46779e-05
4.48768e-05
4.50714e-05
4.5259e-05
4.54364e-05
4.55985e-05
4.57299e-05
4.57709e-05
4.58015e-05
4.58198e-05
4.58233e-05
4.58044e-05
4.57698e-05
4.57197e-05
4.56533e-05
4.55688e-05
4.54652e-05
4.5342e-05
4.51981e-05
4.50332e-05
4.48472e-05
4.46398e-05
4.44104e-05
4.41597e-05
4.38873e-05
4.35949e-05
4.32815e-05
4.29494e-05
4.25993e-05
4.22332e-05
4.18528e-05
4.146e-05
4.10564e-05
4.06451e-05
4.02279e-05
3.98078e-05
3.93861e-05
3.89687e-05
3.85649e-05
3.81813e-05
3.78376e-05
3.75424e-05
3.73309e-05
3.72383e-05
4.13349e-05
4.13481e-05
4.15455e-05
4.18576e-05
4.22415e-05
4.26717e-05
4.30369e-05
4.3276e-05
4.34767e-05
4.36459e-05
4.3804e-05
4.39654e-05
4.41223e-05
4.42815e-05
4.44318e-05
4.45741e-05
4.47052e-05
4.48239e-05
4.49334e-05
4.50342e-05
4.51285e-05
4.52152e-05
4.52951e-05
4.53698e-05
4.54408e-05
4.55097e-05
4.55785e-05
4.56492e-05
4.57247e-05
4.5807e-05
4.58963e-05
4.59898e-05
4.60888e-05
4.61942e-05
4.63069e-05
4.64277e-05
4.6558e-05
4.66995e-05
4.68554e-05
4.70297e-05
4.72165e-05
4.74134e-05
4.76195e-05
4.78341e-05
4.8056e-05
4.82832e-05
4.85145e-05
4.87489e-05
4.89882e-05
4.92323e-05
4.94791e-05
4.97261e-05
4.99696e-05
5.0204e-05
5.04014e-05
5.05083e-05
5.06133e-05
5.0715e-05
5.08119e-05
5.09026e-05
5.09854e-05
5.1059e-05
5.11219e-05
5.11717e-05
5.12069e-05
5.12175e-05
5.12078e-05
5.11798e-05
5.11326e-05
5.1065e-05
5.09757e-05
5.08634e-05
5.07274e-05
5.05667e-05
5.03809e-05
5.01698e-05
4.99332e-05
4.96708e-05
4.93831e-05
4.90701e-05
4.87333e-05
4.83721e-05
4.79888e-05
4.75845e-05
4.71611e-05
4.67209e-05
4.62659e-05
4.57982e-05
4.5321e-05
4.48367e-05
4.43484e-05
4.3858e-05
4.33718e-05
4.29e-05
4.245e-05
4.20427e-05
4.16883e-05
4.14234e-05
4.12863e-05
4.54101e-05
4.53896e-05
4.55609e-05
4.58553e-05
4.61264e-05
4.63296e-05
4.6525e-05
4.67083e-05
4.68896e-05
4.7084e-05
4.72844e-05
4.74967e-05
4.77108e-05
4.79266e-05
4.81352e-05
4.83342e-05
4.85234e-05
4.87022e-05
4.88757e-05
4.90453e-05
4.92152e-05
4.93841e-05
4.95478e-05
4.9708e-05
4.9866e-05
5.00225e-05
5.01794e-05
5.03381e-05
5.05017e-05
5.06745e-05
5.08618e-05
5.10545e-05
5.12536e-05
5.14595e-05
5.16723e-05
5.18916e-05
5.21171e-05
5.23479e-05
5.25831e-05
5.2823e-05
5.3071e-05
5.33277e-05
5.35916e-05
5.38615e-05
5.41349e-05
5.44077e-05
5.46736e-05
5.4863e-05
5.49999e-05
5.51405e-05
5.52839e-05
5.54293e-05
5.5576e-05
5.5723e-05
5.58694e-05
5.60141e-05
5.61551e-05
5.62907e-05
5.64192e-05
5.6539e-05
5.6648e-05
5.67445e-05
5.68264e-05
5.68914e-05
5.69374e-05
5.69541e-05
5.6949e-05
5.69219e-05
5.68716e-05
5.67965e-05
5.66954e-05
5.65668e-05
5.64101e-05
5.62242e-05
5.60087e-05
5.57633e-05
5.54883e-05
5.51831e-05
5.48487e-05
5.44849e-05
5.40936e-05
5.36744e-05
5.32296e-05
5.27606e-05
5.22697e-05
5.17594e-05
5.12321e-05
5.06902e-05
5.01376e-05
4.95767e-05
4.90112e-05
4.84434e-05
4.78802e-05
4.73324e-05
4.68088e-05
4.63309e-05
4.59106e-05
4.5586e-05
4.53985e-05
4.95544e-05
4.94435e-05
4.94797e-05
4.95595e-05
4.97043e-05
4.98533e-05
5.0042e-05
5.02687e-05
5.05168e-05
5.07895e-05
5.10738e-05
5.13682e-05
5.16669e-05
5.197e-05
5.22733e-05
5.25693e-05
5.28572e-05
5.31357e-05
5.34093e-05
5.36791e-05
5.3952e-05
5.42328e-05
5.45097e-05
5.4784e-05
5.50563e-05
5.53264e-05
5.5595e-05
5.58616e-05
5.61263e-05
5.6389e-05
5.66513e-05
5.69189e-05
5.71915e-05
5.74694e-05
5.77524e-05
5.80392e-05
5.83285e-05
5.86168e-05
5.88974e-05
5.90846e-05
5.92342e-05
5.93884e-05
5.95473e-05
5.9711e-05
5.98794e-05
6.00525e-05
6.02301e-05
6.04125e-05
6.05987e-05
6.07877e-05
6.09785e-05
6.11702e-05
6.13617e-05
6.15518e-05
6.17391e-05
6.1922e-05
6.20985e-05
6.22671e-05
6.24256e-05
6.25721e-05
6.27043e-05
6.28202e-05
6.29175e-05
6.29937e-05
6.30437e-05
6.30627e-05
6.30565e-05
6.3024e-05
6.29636e-05
6.28736e-05
6.27527e-05
6.25995e-05
6.24131e-05
6.21927e-05
6.19379e-05
6.16484e-05
6.13246e-05
6.09663e-05
6.05743e-05
6.01489e-05
5.96921e-05
5.92036e-05
5.86862e-05
5.81414e-05
5.75718e-05
5.69803e-05
5.63698e-05
5.57433e-05
5.51048e-05
5.44574e-05
5.38052e-05
5.31509e-05
5.25021e-05
5.18704e-05
5.12657e-05
5.07104e-05
5.02182e-05
4.98278e-05
4.95843e-05
5.34611e-05
5.32566e-05
5.32191e-05
5.32524e-05
5.34035e-05
5.36051e-05
5.38739e-05
5.41988e-05
5.45586e-05
5.49497e-05
5.53533e-05
5.57648e-05
5.61798e-05
5.66005e-05
5.70321e-05
5.7462e-05
5.78856e-05
5.82993e-05
5.87051e-05
5.90991e-05
5.9483e-05
5.98575e-05
6.02294e-05
6.05972e-05
6.09618e-05
6.13223e-05
6.16786e-05
6.20289e-05
6.23701e-05
6.26953e-05
6.28906e-05
6.30792e-05
6.32668e-05
6.34542e-05
6.36422e-05
6.38316e-05
6.40231e-05
6.42175e-05
6.44156e-05
6.46184e-05
6.48258e-05
6.50377e-05
6.52542e-05
6.54752e-05
6.57007e-05
6.59302e-05
6.61635e-05
6.64001e-05
6.66389e-05
6.68792e-05
6.71196e-05
6.73591e-05
6.75963e-05
6.78296e-05
6.80573e-05
6.82777e-05
6.84887e-05
6.86883e-05
6.88744e-05
6.90445e-05
6.91964e-05
6.93277e-05
6.94362e-05
6.95198e-05
6.95666e-05
6.95826e-05
6.9569e-05
6.95239e-05
6.94458e-05
6.93328e-05
6.91836e-05
6.89967e-05
6.87713e-05
6.85064e-05
6.82019e-05
6.78577e-05
6.74742e-05
6.70513e-05
6.65903e-05
6.60915e-05
6.55573e-05
6.49877e-05
6.43855e-05
6.37528e-05
6.30924e-05
6.24079e-05
6.17024e-05
6.09796e-05
6.02441e-05
5.94994e-05
5.87502e-05
5.79998e-05
5.72562e-05
5.65322e-05
5.58389e-05
5.51999e-05
5.46301e-05
5.41557e-05
5.37726e-05
5.74884e-05
5.7244e-05
5.72076e-05
5.72913e-05
5.75275e-05
5.78385e-05
5.82306e-05
5.86828e-05
5.91749e-05
5.9709e-05
6.02597e-05
6.08182e-05
6.13768e-05
6.19299e-05
6.24741e-05
6.30142e-05
6.35488e-05
6.40725e-05
6.45855e-05
6.508e-05
6.55431e-05
6.58498e-05
6.61471e-05
6.64357e-05
6.67167e-05
6.69907e-05
6.72587e-05
6.75215e-05
6.77804e-05
6.80363e-05
6.82908e-05
6.85438e-05
6.87963e-05
6.90491e-05
6.93028e-05
6.95582e-05
6.98159e-05
7.00766e-05
7.03408e-05
7.06089e-05
7.0881e-05
7.11571e-05
7.14371e-05
7.17209e-05
7.2008e-05
7.22981e-05
7.25903e-05
7.28841e-05
7.31782e-05
7.34718e-05
7.37634e-05
7.40515e-05
7.43345e-05
7.46107e-05
7.48781e-05
7.51348e-05
7.53784e-05
7.56068e-05
7.58174e-05
7.60078e-05
7.61754e-05
7.63176e-05
7.64318e-05
7.65155e-05
7.65566e-05
7.65636e-05
7.65356e-05
7.64707e-05
7.6367e-05
7.62226e-05
7.60361e-05
7.5806e-05
7.55315e-05
7.52119e-05
7.48468e-05
7.44366e-05
7.39816e-05
7.34823e-05
7.29399e-05
7.23552e-05
7.17308e-05
7.1067e-05
7.0367e-05
6.96332e-05
6.88689e-05
6.80781e-05
6.72646e-05
6.64328e-05
6.55879e-05
6.47341e-05
6.38765e-05
6.3019e-05
6.21706e-05
6.13453e-05
6.05556e-05
5.98265e-05
5.91596e-05
5.84202e-05
5.79132e-05
6.19599e-05
6.17068e-05
6.17234e-05
6.18958e-05
6.225e-05
6.26912e-05
6.32234e-05
6.38136e-05
6.44318e-05
6.50743e-05
6.5737e-05
6.6408e-05
6.70771e-05
6.77294e-05
6.82271e-05
6.86643e-05
6.90892e-05
6.95005e-05
6.99002e-05
7.02893e-05
7.06695e-05
7.10423e-05
7.14074e-05
7.17655e-05
7.21173e-05
7.24634e-05
7.28046e-05
7.31415e-05
7.34753e-05
7.38065e-05
7.41361e-05
7.44644e-05
7.47923e-05
7.51203e-05
7.54493e-05
7.57796e-05
7.61119e-05
7.64466e-05
7.6784e-05
7.71243e-05
7.74676e-05
7.78138e-05
7.81627e-05
7.85139e-05
7.88669e-05
7.92209e-05
7.95752e-05
7.99287e-05
8.02803e-05
8.06287e-05
8.09724e-05
8.13095e-05
8.16384e-05
8.19569e-05
8.2263e-05
8.25544e-05
8.28286e-05
8.30832e-05
8.33156e-05
8.35229e-05
8.37024e-05
8.38512e-05
8.39661e-05
8.40436e-05
8.40745e-05
8.40663e-05
8.40171e-05
8.39248e-05
8.37875e-05
8.36031e-05
8.33701e-05
8.30871e-05
8.27533e-05
8.2368e-05
8.19311e-05
8.1443e-05
8.09043e-05
8.03157e-05
7.96788e-05
7.89947e-05
7.82663e-05
7.74943e-05
7.66822e-05
7.58327e-05
7.49499e-05
7.40382e-05
7.31023e-05
7.21473e-05
7.1179e-05
7.02026e-05
6.92236e-05
6.82469e-05
6.72822e-05
6.63449e-05
6.54496e-05
6.46233e-05
6.38804e-05
6.30253e-05
6.24382e-05
6.70113e-05
6.67587e-05
6.68361e-05
6.70875e-05
6.75361e-05
6.8077e-05
6.8712e-05
6.94025e-05
7.0094e-05
7.06471e-05
7.1195e-05
7.17356e-05
7.22674e-05
7.27899e-05
7.33039e-05
7.38075e-05
7.43018e-05
7.47854e-05
7.526e-05
7.57263e-05
7.61856e-05
7.66387e-05
7.70858e-05
7.75271e-05
7.79634e-05
7.83949e-05
7.88223e-05
7.92458e-05
7.96664e-05
8.00844e-05
8.05005e-05
8.0915e-05
8.13287e-05
8.1742e-05
8.21555e-05
8.25696e-05
8.29846e-05
8.34008e-05
8.38184e-05
8.42376e-05
8.46581e-05
8.508e-05
8.55026e-05
8.59256e-05
8.63481e-05
8.67694e-05
8.71884e-05
8.7604e-05
8.80148e-05
8.84193e-05
8.88157e-05
8.92022e-05
8.95767e-05
8.99369e-05
9.02806e-05
9.06053e-05
9.09082e-05
9.11868e-05
9.14381e-05
9.16592e-05
9.18473e-05
9.19994e-05
9.21131e-05
9.21752e-05
9.21908e-05
9.21612e-05
9.2084e-05
9.1957e-05
9.1778e-05
9.1545e-05
9.12563e-05
9.09106e-05
9.0507e-05
9.00449e-05
8.95244e-05
8.8946e-05
8.83107e-05
8.76193e-05
8.68739e-05
8.60761e-05
8.52287e-05
8.43332e-05
8.33932e-05
8.24123e-05
8.13947e-05
8.03459e-05
7.92714e-05
7.8177e-05
7.70697e-05
7.59553e-05
7.484e-05
7.37297e-05
7.26352e-05
7.15734e-05
7.05609e-05
6.9627e-05
6.87958e-05
6.80918e-05
6.74866e-05
7.2405e-05
7.21552e-05
7.22142e-05
7.24835e-05
7.28865e-05
7.33856e-05
7.39383e-05
7.45269e-05
7.51308e-05
7.57398e-05
7.63489e-05
7.69558e-05
7.75587e-05
7.81567e-05
7.87495e-05
7.93353e-05
7.99148e-05
8.04864e-05
8.10515e-05
8.16103e-05
8.21637e-05
8.27123e-05
8.32563e-05
8.37957e-05
8.43308e-05
8.48617e-05
8.53886e-05
8.59117e-05
8.64315e-05
8.69483e-05
8.74624e-05
8.79742e-05
8.84841e-05
8.89925e-05
8.94997e-05
9.00059e-05
9.05115e-05
9.10166e-05
9.15213e-05
9.20255e-05
9.2529e-05
9.30315e-05
9.35325e-05
9.40312e-05
9.45268e-05
9.50183e-05
9.55045e-05
9.59843e-05
9.64558e-05
9.69176e-05
9.73676e-05
9.78037e-05
9.82238e-05
9.86253e-05
9.90057e-05
9.93624e-05
9.96924e-05
9.99929e-05
0.000100261
0.000100493
0.000100686
0.000100837
0.000100942
0.000100988
0.000100984
0.000100927
0.000100815
0.000100646
0.000100418
0.000100128