/*--------------------------------*- C++ -*----------------------------------*\
| =========                 |                                                 |
| \\      /  F ield         | OpenFOAM: The Open Source CFD Toolbox           |
|  \\    /   O peration     | Version:  2306                                  |
|   \\  /    A nd           | Website:  www.openfoam.com                      |
|    \\/     M anipulation  |                                                 |
\*---------------------------------------------------------------------------*/
FoamFile
{
    version     2.0;
    format      ascii;
    arch        "LSB;label=32;scalar=64";
    class       volVectorField;
    location    "20000";
    object      U;
}
// * * * * * * * * * * * * * * * * * * * * * * * * * * * * * * * * * * * * * //

dimensions      [0 1 -1 0 0 0 0];

internalField   nonuniform List<vector> 
14751
(
(0.00112329787754 0.00112344906687 0)
(0.00111897480614 0.00111889087709 0)
(0.0011194359792 0.00111958935915 -1.91588e-26)
(0.00111358155062 0.0011137199573 1.91701e-26)
(0.00110912643163 0.00110935038366 -3.52207e-26)
(0.0011011018579 0.001101380202 5.86369e-25)
(0.00109181982275 0.00109213603949 0)
(0.0010811031443 0.00108146980887 -7.62195e-27)
(0.00106869079764 0.00106909099179 3.93091e-28)
(0.00105511436511 0.00105554280818 -6.47803e-27)
(0.00104046829499 0.00104091465756 7.38932e-28)
(0.00102492600592 0.00102538667467 8.22428e-25)
(0.00100860315864 0.00100906947293 0)
(0.000991866935321 0.000992331261231 -2.20552e-26)
(0.000974814232927 0.0009752731325 -6.64927e-25)
(0.000957675455132 0.000958117231408 -3.25897e-25)
(0.000940613991686 0.000941039579458 1.88957e-26)
(0.000923684987724 0.000924084026466 -1.89133e-26)
(0.000907101569474 0.000907475852407 -2.82207e-25)
(0.000890909411791 0.000891254235241 -2.70857e-25)
(0.000875282231011 0.000875599012021 0)
(0.000860199538717 0.000860488244758 -2.68516e-25)
(0.000845745183629 0.00084600779036 1.56068e-26)
(0.000831976222902 0.000832213728756 -1.496e-26)
(0.000818969885324 0.000819184394651 1.49717e-26)
(0.000806677444166 0.000806869519824 4.71107e-25)
(0.000795133130468 0.000795305583912 0)
(0.000784331128276 0.000784484260735 1.17725e-25)
(0.000774270402741 0.000774406585143 0)
(0.000764994099607 0.000765114264202 0)
(0.000756487781028 0.00075659345149 0)
(0.00074874462802 0.000748836823855 0)
(0.000741743289281 0.000741823306191 0)
(0.000735476918956 0.000735545602218 8.39245e-27)
(0.000729952544485 0.00073001082663 -8.39529e-27)
(0.000725121000451 0.000725169149898 2.91215e-25)
(0.00072095347197 0.000720992818361 -3.01445e-25)
(0.000717478617089 0.000717509742515 -3.03481e-25)
(0.00071467528179 0.000714698649972 0)
(0.000712508667156 0.00071252362897 0)
(0.000710935554813 0.000710943045068 2.71504e-27)
(0.000709997512367 0.000710000183477 -2.71517e-27)
(0.000709661109943 0.00070965776339 -2.9363e-27)
(0.000709924768926 0.000709917363425 2.9364e-27)
(0.000710775842507 0.00071076334612 1.58609e-27)
(0.000712135651146 0.00071211882752 1.58612e-27)
(0.000714011810639 0.000713990333967 -8.54918e-28)
(0.000716389844968 0.000716364057208 -2.22036e-25)
(0.000719284151605 0.000719253884041 0)
(0.00072267308983 0.000722639028779 2.37859e-28)
(0.000726535635167 0.000726498089494 -2.37839e-28)
(0.000730871771492 0.000730831082305 -5.08576e-28)
(0.000735667496254 0.000735623725496 5.08523e-28)
(0.000740887393091 0.00074084072475 1.08313e-27)
(0.000746517369999 0.000746467887798 2.82622e-25)
(0.000752542983051 0.000752491374297 -4.52883e-27)
(0.00075893642096 0.000758882426993 2.29682e-27)
(0.000765690170573 0.0007656344169 0)
(0.000772754980985 0.000772697599977 0)
(0.000780151344008 0.000780093910816 0)
(0.000787880709424 0.000787821899636 -1.32152e-24)
(0.000795870667872 0.000795812554443 -2.69386e-24)
(0.000804137633068 0.000804077745791 -1.06807e-26)
(0.00081259555832 0.000812533814746 -1.1138e-26)
(0.000821201088788 0.000821139263331 -1.15736e-26)
(0.000829997570261 0.000829935598574 7.79123e-25)
(0.000838956779561 0.00083889447511 -7.69444e-25)
(0.000848036412116 0.000847973344696 0)
(0.000857200555456 0.000857137409124 2.42624e-26)
(0.000866485123042 0.000866421465612 -2.42509e-26)
(0.000875847399046 0.000875783377174 0)
(0.000885273766431 0.000885208476575 0)
(0.00089477081317 0.000894704317979 0)
(0.000904310653869 0.000904242218236 0)
(0.000913893373099 0.000913822092776 1.03426e-25)
(0.000923533152877 0.000923458043853 -5.23485e-26)
(0.000933201246412 0.000933122249716 -1.05427e-25)
(0.000942927381111 0.0009428415515 1.05665e-25)
(0.000952673712971 0.000952583082529 -1.0595e-25)
(0.000962508456938 0.00096240590708 -5.32054e-26)
(0.000972397133211 0.000972287936408 1.0698e-25)
(0.000982303915449 0.000982180144044 0)
(0.000992329558518 0.000992193907153 0)
(0.00100236402741 0.00100221298657 -5.35673e-26)
(0.00101244770174 0.00101228185551 5.35191e-26)
(0.00102257441625 0.00102239253707 0)
(0.00103269278973 0.00103249741754 0)
(0.00104275554077 0.00104254478335 0)
(0.00105270281279 0.00105248135402 0)
(0.00106252502803 0.00106228842303 -1.67231e-24)
(0.00107205181971 0.00107181108803 1.28848e-26)
(0.00108112572576 0.00108088154199 0)
(0.00108993148773 0.00108968273887 1.23581e-26)
(0.00109779018481 0.00109756423874 6.1348e-26)
(0.00110496338006 0.00110473116902 -3.5676e-26)
(0.00111130495055 0.00111110337845 1.18741e-26)
(0.00111545677327 0.00111529541575 3.72432e-25)
(0.00111703104158 0.00111697383863 -5.67499e-27)
(0.00112300984396 0.00112274715096 -6.9537e-25)
(0.00333554491309 0.00333641768934 -3.10641e-23)
(0.00332267014998 0.00332273352174 0)
(0.00332069396585 0.00332164086244 -5.62616e-23)
(0.00330560874848 0.00330674475229 -1.78376e-24)
(0.0032935109123 0.00329505551635 1.04251e-22)
(0.00327336961911 0.00327534427136 1.70516e-24)
(0.00324992461696 0.00325214851022 7.89801e-25)
(0.0032227789432 0.00322531365231 0)
(0.00319135223285 0.00319413312825 -9.52933e-23)
(0.00315684075502 0.00315982897413 5.49159e-24)
(0.00311951586902 0.00312266723181 0)
(0.00307983660027 0.00308312225679 -1.20695e-24)
(0.00303811418891 0.00304149092078 0)
(0.00299522464831 0.00299865083523 0)
(0.00295143486886 0.00295488665304 5.92379e-23)
(0.00290735362706 0.00291077753709 8.5969e-24)
(0.00286338606682 0.00286678101375 -6.01739e-23)
(0.00281971071138 0.00282302968676 -1.40628e-23)
(0.00277688608318 0.00278012468881 1.45527e-23)
(0.00273502970337 0.00273816063078 4.1512e-25)
(0.00269462138632 0.00269763350565 6.31903e-24)
(0.002655618543 0.00265850104965 -5.95291e-24)
(0.0026182386158 0.00262098422658 0)
(0.00258265170635 0.00258525234609 0)
(0.00254904682427 0.0025514982362 0)
(0.00251734008549 0.00251963607535 -7.3385e-25)
(0.00248761878234 0.00248976241897 4.10577e-23)
(0.00245990808076 0.00246189452755 5.28557e-23)
(0.00243420328555 0.00243603709628 0)
(0.00241060612817 0.00241228638359 -2.11266e-23)
(0.00238909315389 0.00239062341781 -2.7707e-23)
(0.00236965091282 0.00237103336456 2.5241e-23)
(0.00235225036904 0.00235348869121 0)
(0.00233687829684 0.00233797433922 -3.39458e-24)
(0.00232352675256 0.00232448411008 3.45355e-23)
(0.00231208998061 0.00231291162737 -5.78341e-24)
(0.00230251754023 0.00230320833689 2.28569e-24)
(0.00229486043646 0.00229542222856 1.58881e-23)
(0.0022890755372 0.00228951158166 0)
(0.00228506487774 0.002285376371 0)
(0.00228272762254 0.00228291944223 -2.20963e-24)
(0.00228216068476 0.00228224187207 2.2107e-24)
(0.00228328390797 0.00228325411134 -8.18357e-24)
(0.00228606464194 0.00228593224172 -1.19598e-24)
(0.00229047818744 0.0022902443939 0)
(0.00229630965535 0.00229598119293 0)
(0.00230356267305 0.00230313901143 0)
(0.00231220106708 0.00231168331218 3.19104e-24)
(0.00232224669624 0.00232163466279 0)
(0.00233366867552 0.00233296737974 0)
(0.00234638298648 0.00234559577581 4.00419e-25)
(0.00236038295758 0.00235951238044 -4.00192e-25)
(0.00237562570632 0.00237467522328 0)
(0.00239200515891 0.00239097824612 6.93146e-24)
(0.00240948624003 0.00240838581359 -1.47273e-23)
(0.00242798987745 0.00242682143441 -1.86346e-24)
(0.00244746126334 0.00244622677935 1.50518e-23)
(0.00246782769156 0.00246653313319 1.91225e-24)
(0.00248899142085 0.00248764024727 -2.77796e-23)
(0.0025109720791 0.00250957092014 -4.02179e-24)
(0.00253372345969 0.00253227236344 6.29974e-24)
(0.00255708527779 0.00255559373503 4.89013e-26)
(0.00258105690478 0.0025795215214 0)
(0.00260540046994 0.00260382690279 8.95686e-24)
(0.00263002279073 0.00262841921397 -8.9416e-24)
(0.00265498356818 0.002653351891 -1.14852e-24)
(0.0026801972353 0.00267854079524 1.16715e-24)
(0.00270555086007 0.00270387258455 0)
(0.00273094429495 0.00272924941656 0)
(0.00275641484689 0.002754704695 7.78593e-23)
(0.00278186920609 0.00278014788191 0)
(0.00280727432944 0.00280554130972 -2.00183e-23)
(0.00283258578943 0.00283084455313 1.99678e-23)
(0.00285775589878 0.00285600630447 0)
(0.00288278522316 0.00288102599806 -1.59363e-25)
(0.00290766604805 0.00290589720629 0)
(0.00293234768096 0.00293057162671 1.61118e-25)
(0.00295684916427 0.0029550585012 0)
(0.00298114142883 0.00297934447251 1.66207e-22)
(0.00300530309783 0.00300347819665 0)
(0.00302931772399 0.00302749026308 -1.62442e-25)
(0.00305305523499 0.00305119961709 -1.66188e-22)
(0.00307674303639 0.0030748738279 1.65825e-22)
(0.00310010939412 0.00309821894414 -1.65251e-22)
(0.00312329019995 0.00312138191674 0)
(0.0031462020648 0.00314427642918 0)
(0.00316873262231 0.00316680271577 0)
(0.00319074852629 0.00318881127998 -1.60709e-22)
(0.00321212495118 0.00321020067322 -1.58979e-22)
(0.00323276194744 0.00323084457084 2.45324e-24)
(0.00325226144931 0.00325040564756 4.80718e-24)
(0.00327030281921 0.00326851157632 -4.78807e-24)
(0.00328712255609 0.00328540669077 5.79382e-25)
(0.00330148452414 0.00329995124794 -7.20408e-25)
(0.00331381316421 0.0033123713452 -1.47734e-22)
(0.00332368917472 0.00332256302515 4.4199e-24)
(0.0033283126709 0.00332757032333 -1.36806e-22)
(0.00332940017567 0.00332892940802 0)
(0.00333833365456 0.00333727761886 1.00729e-24)
(0.00554530703753 0.00554755787155 8.97063e-23)
(0.00552353866688 0.00552441081946 1.78398e-24)
(0.00551753636622 0.00552010350325 6.11966e-23)
(0.00549706268334 0.00550021553106 2.19329e-22)
(0.00548110099934 0.00548517765378 -1.16979e-22)
(0.00545515121992 0.00546031473991 6.38794e-24)
(0.00542439771057 0.0054302712082 0)
(0.00538847179998 0.00539517531369 0)
(0.0053464561868 0.00535386546378 -2.73051e-22)
(0.00529988794438 0.00530790171281 1.07149e-23)
(0.00524914975185 0.00525766505698 2.9855e-22)
(0.00519492684519 0.00520385618962 3.03651e-22)
(0.00513767818618 0.0051469212456 1.00666e-24)
(0.0050785665695 0.0050880167405 2.91771e-22)
(0.00501805042662 0.00502763176593 -3.42318e-22)
(0.00495694138885 0.00496652446764 1.59988e-23)
(0.00489586812361 0.00490542382323 -1.4949e-22)
(0.00483510039921 0.00484451261272 -2.92256e-23)
(0.00477545227233 0.00478468797785 0)
(0.00471714038635 0.00472612925504 -1.98423e-22)
(0.00466082399107 0.00466952069737 1.91704e-22)
(0.00460649824279 0.00461486714853 0)
(0.00455449287956 0.00456250355086 0)
(0.00450504636606 0.00451267227228 0)
(0.00445843322236 0.00446565033601 9.47932e-23)
(0.00441460277012 0.00442138942545 0)
(0.00437368617765 0.004380041215 5.89736e-23)
(0.00433573465362 0.0043416393488 -5.92939e-23)
(0.00430077120021 0.00430623153534 8.40093e-23)
(0.00426892982123 0.00427393832927 2.43764e-23)
(0.00424020470426 0.004244765543 3.11688e-23)
(0.00421458249912 0.00421869824243 -3.18025e-23)
(0.0041920333447 0.00419570972014 -1.11526e-22)
(0.00417255176799 0.004175791307 1.35328e-23)
(0.00415612808163 0.00415893854824 -3.4841e-23)
(0.00414264265729 0.00414503065588 -7.37164e-24)
(0.00413199405343 0.00413397108156 3.55622e-24)
(0.00412427801231 0.00412584793078 -1.17801e-23)
(0.00411942829004 0.00412060016821 0)
(0.0041173127305 0.00411809124941 3.37741e-23)
(0.00411781342079 0.00411821281308 4.48014e-24)
(0.00412100672696 0.00412104405668 -4.48195e-24)
(0.00412680021128 0.00412647942805 9.50626e-24)
(0.00413512824625 0.00413447141759 0)
(0.0041459272694 0.00414494216642 -2.05432e-23)
(0.00415892211932 0.00415762943479 1.359e-24)
(0.00417403697508 0.00417243933802 -1.35835e-24)
(0.00419123632222 0.00418933667986 -2.13934e-24)
(0.00421052180408 0.004208319817 5.21654e-24)
(0.0042318727802 0.00422938110561 3.88042e-25)
(0.00425515591146 0.00425238518425 -6.55904e-24)
(0.00428033645063 0.00427729608946 0)
(0.00430733554823 0.00430403710723 1.7224e-24)
(0.00433596892517 0.00433242482113 -1.22563e-23)
(0.00436616647887 0.00436238791237 1.79298e-23)
(0.00439779120741 0.00439379468231 6.2922e-23)
(0.00443072611288 0.00442652171253 -1.12357e-23)
(0.00446484723948 0.00446045254255 -7.68715e-24)
(0.00449998750494 0.00449541484338 4.00255e-23)
(0.00453612233023 0.00453139076763 2.0256e-25)
(0.00457317371441 0.00456828861064 1.33855e-22)
(0.00461086289475 0.00460584973395 -1.36281e-22)
(0.00464913036116 0.00464399222631 -2.61888e-23)
(0.00468767908637 0.00468243328744 -1.24256e-22)
(0.00472632247196 0.00472099182021 -1.44286e-22)
(0.00476509595813 0.00475968895299 -1.6515e-22)
(0.00480382736438 0.00479835745502 3.72157e-23)
(0.004842355237 0.00483683351086 -1.8715e-23)
(0.00488050692175 0.00487495036353 3.05881e-22)
(0.00491828020538 0.00491269608413 -3.84173e-23)
(0.00495553771825 0.00494993934173 -7.81843e-23)
(0.00499219232359 0.00498658342533 3.92205e-23)
(0.005028169556 0.00502256137898 -4.00235e-23)
(0.00506338153623 0.00505777723415 8.01735e-23)
(0.00509781522524 0.00509221574563 -4.01439e-23)
(0.00513144780469 0.00512585730534 0)
(0.00516418524352 0.00515861209658 3.25619e-22)
(0.00519603030653 0.00519046321242 -6.53028e-22)
(0.0052269691627 0.00522142448387 4.9053e-22)
(0.00525707094587 0.00525151162993 6.54302e-22)
(0.00528631958348 0.00528079729165 -8.18266e-23)
(0.00531454363045 0.00530901450797 2.44537e-22)
(0.00534202316468 0.00533651959704 -1.62545e-22)
(0.00536843918203 0.00536295274051 8.08911e-22)
(0.00539395724448 0.0053885019298 6.83373e-22)
(0.00541845135974 0.00541303859875 -6.78375e-22)
(0.00544178221363 0.00543644750309 0)
(0.00546376711098 0.00545851535821 1.17514e-22)
(0.00548426895085 0.00547915299087 1.93392e-22)
(0.00550310506635 0.00549813294603 -5.90948e-22)
(0.00551978639414 0.00551508161675 -6.19225e-22)
(0.00553388654177 0.00552947787241 4.57605e-24)
(0.00554571884238 0.00554164477595 -5.83112e-22)
(0.00555405206044 0.00555052253694 0)
(0.00555934237882 0.00555622065794 1.46884e-22)
(0.00556124998321 0.00555899410044 -8.52031e-24)
(0.00555705465433 0.00555570823958 1.29231e-22)
(0.00555130613288 0.00555048246379 2.02002e-24)
(0.00555470662919 0.00555304994871 1.93999e-24)
(0.00768704619248 0.00769139492747 -5.52237e-23)
(0.00765575811042 0.00765861913516 0)
(0.00764399227077 0.00764945461409 -4.14056e-22)
(0.00761942597405 0.0076262204924 -2.0586e-22)
(0.00760085172848 0.00760929797756 2.67118e-25)
(0.00757214211129 0.0075825704231 7.439e-22)
(0.00753769116887 0.00754956337859 0)
(0.0074974465329 0.00751089489778 0)
(0.00745015320198 0.00746499155494 9.6901e-22)
(0.00739744157342 0.00741347564395 1.87297e-23)
(0.00733980247126 0.00735684629027 2.56522e-22)
(0.00727808209018 0.0072959543555 -2.77956e-22)
(0.00721284625703 0.00723136538363 5.47729e-22)
(0.00714537971411 0.00716434021676 -2.52455e-22)
(0.00707629637154 0.007095537737 2.40362e-22)
(0.00700655711671 0.00702584967671 -4.58402e-22)
(0.00693688553201 0.00695613637271 2.1891e-22)
(0.00686762788762 0.00688663138236 -4.44929e-22)
(0.00679976628414 0.006818431499 2.57631e-23)
(0.00673356814937 0.00675176426959 2.17974e-22)
(0.00666978259222 0.00668740793585 -2.35033e-22)
(0.00660846773688 0.00662544579496 2.32351e-23)
(0.00655000181476 0.00656626329083 -2.21078e-23)
(0.0064946539507 0.0065101428419 2.22079e-23)
(0.00644274312057 0.00645740186841 -6.52575e-23)
(0.00639425566307 0.00640803988953 -2.17001e-23)
(0.00634936020196 0.00636225597703 -9.71831e-23)
(0.00630813329567 0.00632010085167 1.73656e-22)
(0.00627060235875 0.00628164609388 -1.0976e-22)
(0.00623691308348 0.00624701471196 -1.67263e-22)
(0.00620707627444 0.00621623832772 1.93439e-22)
(0.00618107774708 0.00618930284144 -1.15227e-23)
(0.00615890808273 0.00616620352966 9.57686e-23)
(0.0061405336231 0.00614690333998 0)
(0.0061259498003 0.00613140684031 1.02031e-22)
(0.00611503747389 0.00611959275477 6.7218e-24)
(0.0061076915961 0.00611136814124 2.47134e-25)
(0.00610398370492 0.00610678874095 9.95318e-23)
(0.00610383835205 0.00610578858084 1.25452e-22)
(0.00610714592463 0.00610825099959 -9.21529e-23)
(0.00611374763546 0.00611403779956 -4.07187e-24)
(0.00612370776905 0.00612321197547 4.0708e-24)
(0.0061368854188 0.00613561744906 0)
(0.00615320881621 0.00615121285176 0)
(0.0061725911222 0.00616988703273 1.86227e-23)
(0.0061946874313 0.00619132021709 0)
(0.00621939194618 0.00621537778583 -4.0092e-23)
(0.00624655989381 0.00624190752717 0)
(0.00627621119338 0.00627091780616 -5.3777e-24)
(0.00630835493122 0.0063024419629 -1.73835e-25)
(0.00634281274672 0.0063363048046 7.20979e-24)
(0.00637950014767 0.00637242111784 -4.47491e-24)
(0.00641828895685 0.00641066452141 3.01036e-24)
(0.00645895101209 0.00645081062912 0)
(0.00650136710934 0.00649273822872 6.58175e-24)
(0.00654533515749 0.00653625343155 -6.66463e-23)
(0.00659067560798 0.00658116809061 6.7459e-24)
(0.00663722098256 0.00662732441504 0)
(0.00668474845068 0.00667449268706 1.00425e-22)
(0.00673316009926 0.00672258697198 1.17281e-22)
(0.00678230580246 0.00677143212651 -1.05391e-22)
(0.00683185693948 0.0068207345175 1.07236e-22)
(0.00688168198845 0.00687032868197 -2.50684e-22)
(0.00693143276999 0.00691988397677 1.43287e-22)
(0.00698087680154 0.00696918033614 1.29754e-22)
(0.00702995624177 0.00701813418006 9.86189e-23)
(0.00707844025566 0.0070665237952 3.31812e-23)
(0.00712613414136 0.0071141479036 -3.42313e-23)
(0.00717281960087 0.00716080053921 3.44053e-22)
(0.00721843514417 0.00720640177068 -5.91797e-22)
(0.00726276409962 0.00725074400559 -3.54436e-23)
(0.00730574299023 0.00729374929957 3.53417e-23)
(0.00734715487565 0.00733521032891 -7.21733e-23)
(0.0073870061764 0.00737512067307 7.19594e-23)
(0.0074251574086 0.00741333697324 -7.31759e-23)
(0.00746160616102 0.00744986164064 -7.29503e-23)
(0.00749627857635 0.00748462711123 -9.57347e-22)
(0.0075291181709 0.00751754844732 1.18183e-21)
(0.00756010820039 0.00754864239322 -1.70375e-21)
(0.00758928321405 0.00757787439969 -5.93273e-22)
(0.00761665362049 0.00760537547947 -1.18648e-21)
(0.00764207005756 0.00763087073065 -1.1851e-21)
(0.0076657645694 0.0076546937945 1.18219e-21)
(0.00768747991764 0.00767653622398 -5.88906e-22)
(0.0077073411612 0.00769655580288 5.85914e-22)
(0.00772520668071 0.00771461130785 5.82162e-22)
(0.00774091808427 0.00773057828809 -1.15503e-21)
(0.00775428295398 0.00774422489742 -1.14409e-21)
(0.00776519503997 0.00775551596436 -3.52072e-23)
(0.00777346964595 0.00776421192113 6.28241e-22)
(0.00777846237137 0.00776982579743 5.15682e-22)
(0.00777987906688 0.00777194463583 0)
(0.00777807242319 0.00777092285239 1.59283e-21)
(0.00777214741991 0.0077660998326 -7.03158e-24)
(0.00776246637147 0.00775739610472 8.02919e-24)
(0.00774934792141 0.0077459072388 7.66977e-24)
(0.00773078489762 0.00772897350218 -7.65371e-24)
(0.00771331961539 0.00771249765891 8.86453e-28)
(0.00770566957491 0.00770416708613 -8.97138e-25)
(0.00962359836739 0.00963091928432 -5.82713e-27)
(0.00958288458022 0.00958918442081 2.89794e-24)
(0.00956328215896 0.00957314866029 2.87442e-24)
(0.00953338084764 0.00954563290098 0)
(0.00951032698161 0.00952512898929 -6.72161e-22)
(0.00947770298392 0.00949552759024 -6.44196e-22)
(0.00943910068123 0.00945931799547 0)
(0.00939459113778 0.00941727766891 0)
(0.00934278241387 0.00936768728039 -5.60814e-22)
(0.00928532991719 0.00931214411344 -5.4989e-22)
(0.00922278752448 0.00925122566216 -4.90901e-22)
(0.00915615331695 0.00918591374432 0)
(0.00908605584183 0.0091168526049 -9.14358e-22)
(0.00901379115514 0.00904529177229 0)
(0.00894010631519 0.00897203982311 -4.12358e-22)
(0.00886588704393 0.00889790809168 3.92352e-22)
(0.00879211650264 0.00882403473706 3.28353e-22)
(0.00871906466468 0.00875057404996 4.03223e-22)
(0.00864786763852 0.00867879408496 3.4265e-22)
(0.00857875212259 0.00860889240771 0)
(0.00851241094011 0.00854159040854 3.1865e-22)
(0.00844910515492 0.00847719270906 0)
(0.00838911202357 0.00841598773811 -3.01966e-22)
(0.00833277300794 0.00835834114062 -2.96365e-22)
(0.00828030200782 0.00830446328084 1.81931e-23)
(0.00823175651099 0.00825443809237 -1.22451e-25)
(0.00818732962833 0.0082084967284 -1.81559e-23)
(0.00814710642477 0.00816669554535 1.45586e-22)
(0.00811112663971 0.00812913622516 1.8484e-23)
(0.00807947562094 0.00809587484141 1.30539e-22)
(0.00805220908849 0.00806699709544 -1.61483e-22)
(0.00802925456389 0.00804243404434 9.60888e-24)
(0.00801067908088 0.00802226007574 1.01165e-23)
(0.00799634196763 0.00800633301876 -1.01256e-23)
(0.00798623833097 0.00799465776656 -8.48151e-23)
(0.00798029956032 0.00798716150837 -1.75463e-22)
(0.00797844416869 0.00798378430981 0)
(0.00798068295361 0.00798451537337 -1.00294e-22)
(0.00798693780807 0.0079892913847 -9.18826e-23)
(0.00799707188073 0.00799796635242 4.43589e-23)
(0.00801099905306 0.00801048497371 6.47703e-24)
(0.00802865165636 0.0080267734959 -6.99856e-24)
(0.00804996577101 0.00804675441728 6.99196e-24)
(0.00807470919798 0.00807023567279 0)
(0.0081028276244 0.00809713015394 0)
(0.00813401806209 0.0081271751635 0)
(0.00816815477333 0.00816021359648 3.30775e-23)
(0.00820489529214 0.00819588081205 0)
(0.00824432669875 0.00823423115138 -1.83089e-23)
(0.0082863599401 0.00827521224613 -5.63724e-25)
(0.00833091560106 0.00831876209012 -1.20599e-24)
(0.00837778143643 0.00836466866443 -1.28495e-24)
(0.00842681585517 0.00841279071743 -2.64688e-24)
(0.0084778028715 0.00846291997081 5.12347e-24)
(0.00853046090136 0.00851477232321 8.57002e-23)
(0.00858464331202 0.00856821156464 0)
(0.00864014277978 0.00862302075476 1.14701e-23)
(0.00869667144145 0.00867892207129 3.12103e-25)
(0.00875402070054 0.00873569984668 -1.06904e-22)
(0.00881197001045 0.00879315036347 -9.74264e-23)
(0.00887039598104 0.00885111416906 1.26005e-23)
(0.0089289211587 0.00890926161029 1.31547e-23)
(0.00898728405537 0.00896728848981 1.82083e-22)
(0.00904519291877 0.00902492087446 -2.67458e-23)
(0.00910242607092 0.00908195617814 2.66995e-23)
(0.00915871848822 0.00913809373905 2.76874e-23)
(0.00921392295102 0.00919319793411 -5.01991e-22)
(0.00926783305487 0.00924705090372 2.80832e-23)
(0.00932001513115 0.00929923778834 -4.59702e-22)
(0.00937048282705 0.00934974494079 4.07251e-22)
(0.00941901849509 0.00939836574449 -7.89531e-25)
(0.00946548983559 0.00944494965639 5.92588e-23)
(0.0095096799082 0.00948928935279 0)
(0.00955145549399 0.00953123520989 1.0346e-21)
(0.00959081991636 0.0095707839043 -6.1053e-23)
(0.00962763048118 0.00960779528744 0)
(0.00966188337006 0.00964227317769 4.97429e-22)
(0.00969345363723 0.00967405967812 -5.00011e-22)
(0.00972239389143 0.00970324360132 1.00397e-21)
(0.00974859870306 0.00972964753422 0)
(0.00977214323755 0.00975347915406 1.13481e-21)
(0.00979281076669 0.00977438950366 1.00946e-21)
(0.00981082947382 0.00979271608509 -1.13451e-21)
(0.00982594126497 0.00980815130688 0)
(0.00983826783322 0.00982085631868 -1.06611e-21)
(0.0098476649995 0.00983069245685 -9.36413e-22)
(0.00985397097777 0.00983753866471 1.05486e-21)
(0.0098569225829 0.00984109244197 1.90934e-21)
(0.00985640554642 0.00984132663573 -9.46151e-22)
(0.00985216446137 0.00983793096755 -3.03138e-23)
(0.00984375664354 0.00983064101483 9.53577e-22)
(0.00983081714806 0.00981897319433 -9.46918e-22)
(0.00981370648625 0.0098032741015 -9.16878e-22)
(0.00979193406034 0.00978332722731 0)
(0.00976616274053 0.00975931822973 -8.75013e-22)
(0.00973704173569 0.00973271922022 -7.01363e-24)
(0.00970375031404 0.00970194676749 -6.7024e-24)
(0.00967339693118 0.00967332744479 -7.77465e-28)
(0.00965294557711 0.00965276660556 -7.86697e-25)
(0.0112485278202 0.0112598123959 4.97556e-27)
(0.0111984447833 0.0112096276912 -4.99573e-27)
(0.0111691459623 0.0111849035541 3.1448e-22)
(0.0111315434379 0.0111509468722 5.90699e-22)
(0.0111006306386 0.0111235940727 -5.70131e-22)
(0.0110608787217 0.0110879684068 1.08977e-21)
(0.0110151678038 0.011045715241 0)
(0.0109638170023 0.0109977882505 -9.89604e-22)
(0.0109054138005 0.0109424886819 -9.54996e-22)
(0.0108417848675 0.0108815254 4.60701e-22)
(0.0107734065104 0.0108154120473 8.46536e-22)
(0.0107013608854 0.010745187788 8.2638e-22)
(0.0106262651553 0.0106715082513 1.11467e-21)
(0.0105495660606 0.010595755124 0)
(0.0104719340091 0.0105186722117 -3.40988e-22)
(0.0103943244437 0.0104411425494 -3.94412e-23)
(0.0103175076864 0.0103640928711 -2.68286e-22)
(0.0102420991323 0.0102880391527 3.58716e-23)
(0.010169019505 0.0102140405695 -3.51103e-22)
(0.0100985559607 0.0101423756508 5.73878e-22)
(0.0100315433096 0.0100739066426 -2.60121e-22)
(0.00996802157402 0.010008734944 3.10939e-23)
(0.00990833631696 0.00994722209876 2.14523e-22)
(0.00985275199639 0.00988966933433 4.51638e-22)
(0.00980155265711 0.00983635829136 2.98958e-23)
(0.00975478914009 0.00978737955021 -2.35284e-22)
(0.00971265172776 0.00974296709252 1.46795e-23)
(0.0096750826495 0.00970303726756 -2.50025e-22)
(0.00964225648997 0.00966783975474 2.37348e-22)
(0.00961411759988 0.00963728878199 1.51667e-23)
(0.00959071837583 0.00961147337407 2.29762e-22)
(0.00957212662936 0.00959046714079 0)
(0.00955819535298 0.00957413424694 0)
(0.00954885346124 0.0095624043566 -8.39391e-24)
(0.009544236655 0.00955542461163 -2.7633e-25)
(0.00954406387346 0.0095529103874 2.81792e-22)
(0.00954839046893 0.00955494775296 8.97269e-24)
(0.00955708815811 0.0095613821489 -1.51526e-22)
(0.00957014808095 0.00957222243526 1.57314e-22)
(0.00958736262467 0.00958725196076 0)
(0.00960864106493 0.00960642002839 -7.95033e-23)
(0.00963384720136 0.00962957999579 -5.41045e-24)
(0.00966291563989 0.00965665583569 -5.84678e-24)
(0.00969568204182 0.00968752904407 5.84245e-24)
(0.00973195420846 0.00972196755554 3.15305e-24)
(0.00977163699152 0.00975992509705 -6.4224e-24)
(0.00981446766548 0.0098010987087 -5.0017e-23)
(0.00986038903247 0.00984540416699 -1.75843e-24)
(0.00990920223993 0.00989261606042 1.75908e-24)
(0.00996074544524 0.00994261338889 4.71164e-25)
(0.0100147268254 0.00999512228993 4.7084e-25)
(0.0100710743971 0.0100500733257 0)
(0.0101295061659 0.0101071828048 -6.5386e-23)
(0.0101898039896 0.0101662446059 0)
(0.0102516865103 0.010226974401 -6.94708e-23)
(0.0103149354441 0.0102891662102 1.42969e-22)
(0.0103792728981 0.0103525322409 0)
(0.0104444820733 0.010416865028 1.50941e-22)
(0.0105102831676 0.0104818786882 -9.80293e-24)
(0.0105763832974 0.0105473004197 9.79504e-24)
(0.0106425222473 0.0106128247524 3.24936e-22)
(0.0107084593183 0.0106782681214 3.32324e-22)
(0.0107739357091 0.0107433236424 0)
(0.0108385194484 0.0108075747586 -2.18806e-23)
(0.010901915319 0.0108707510019 3.97547e-22)
(0.0109640740356 0.0109327602361 -2.22881e-23)
(0.0110246360343 0.0109932549182 1.14528e-21)
(0.011083256035 0.0110518732219 -9.31076e-23)
(0.0111397804541 0.0111084858878 -7.09783e-22)
(0.0111940849821 0.0111629343828 -4.83323e-23)
(0.0112458106209 0.011214870598 4.83252e-23)
(0.0112948262023 0.0112641428592 0)
(0.0113409876887 0.0113106123612 -7.47683e-22)
(0.0113841642651 0.0113541270762 -9.07016e-22)
(0.0114242895344 0.0113946119799 5.06154e-23)
(0.0114612203781 0.0114319273483 0)
(0.0114950229813 0.0114661484174 1.75686e-21)
(0.0115255019706 0.0114970462967 -2.07918e-22)
(0.0115525698061 0.0115245671047 -1.46352e-21)
(0.0115762600046 0.0115486773247 -2.09922e-22)
(0.0115965785058 0.0115695124381 1.05118e-22)
(0.0116130898027 0.0115865180026 1.05607e-22)
(0.0116262377462 0.0116002401168 -1.79529e-21)
(0.0116356167398 0.011610235849 0)
(0.0116413474867 0.0116166673387 1.58089e-21)
(0.011643211703 0.0116193286058 9.98142e-22)
(0.0116410456935 0.0116181005027 -1.04551e-22)
(0.0116345821012 0.0116126847012 -7.79585e-22)
(0.0116237742568 0.0116031278702 7.7392e-22)
(0.0116082213725 0.0115889822698 5.13082e-23)
(0.0115876922949 0.0115701962104 -8.08076e-22)
(0.011561671826 0.0115461535191 2.39189e-21)
(0.0115308131062 0.0115174738479 0)
(0.011494760475 0.0114840885932 0)
(0.0114543856253 0.0114463988542 7.56975e-22)
(0.0114110047233 0.0114064825774 -7.34983e-22)
(0.0113643541348 0.0113633306048 -5.72109e-24)
(0.0113218630241 0.0113235144861 6.64162e-28)
(0.0112890803799 0.0112915261491 -6.73861e-25)
(0.0125750166546 0.0125914793733 0)
(0.012514480536 0.0125320901818 5.52114e-22)
(0.0124741233357 0.0124973526419 0)
(0.0124265645356 0.012454826038 5.05528e-22)
(0.012385351524 0.0124182573037 1.92234e-21)
(0.0123359844398 0.0123741448715 -9.12197e-22)
(0.0122811599762 0.0123238932674 -8.78152e-22)
(0.0122210529299 0.0122681762229 8.33674e-22)
(0.0121547125253 0.0122058231934 7.87216e-22)
(0.0120836410106 0.0121381603576 2.26708e-23)
(0.0120086613874 0.0120660617703 -7.2751e-22)
(0.0119307279671 0.0119904115978 -6.66205e-22)
(0.0118506583064 0.0119120893394 -6.67918e-22)
(0.0117696953578 0.011832256206 3.82805e-23)
(0.0116886452936 0.0117518030814 5.63434e-22)
(0.0116082471819 0.0116714051111 5.34206e-22)
(0.011529487083 0.011592197555 5.07353e-22)
(0.0114527551078 0.0115144974092 -2.95257e-23)
(0.0113790440342 0.0114394332161 2.95382e-23)
(0.0113086272297 0.0113672972935 -4.70159e-22)
(0.0112421981538 0.0112988103955 -3.99736e-22)
(0.0111799296235 0.0112342239692 0)
(0.0111220934507 0.0111738318882 0)
(0.0110688773722 0.0111178706797 -1.97066e-22)
(0.0110204923886 0.0110665536072 2.415e-23)
(0.0109771246812 0.0110201187534 1.92216e-22)
(0.0109387500669 0.0109785903014 -3.60201e-23)
(0.010905448873 0.0109420293453 -3.7264e-22)
(0.0108772495253 0.0109105488807 -1.81704e-22)
(0.0108541662366 0.0108841346947 -2.21111e-22)
(0.0108361777936 0.0108628080007 -3.75116e-22)
(0.0108232796002 0.0108465733947 -2.04251e-22)
(0.0108154638783 0.0108354386549 -2.22855e-22)
(0.0108125870143 0.010829264552 2.298e-22)
(0.0108146427505 0.010828057344 -1.37268e-23)
(0.0108214915252 0.0108316737497 -3.38798e-22)
(0.0108329727685 0.0108399914962 -7.34432e-24)