/*--------------------------------*- C++ -*----------------------------------*\
| =========                 |                                                 |
| \\      /  F ield         | OpenFOAM: The Open Source CFD Toolbox           |
|  \\    /   O peration     | Version:  2306                                  |
|   \\  /    A nd           | Website:  www.openfoam.com                      |
|    \\/     M anipulation  |                                                 |
\*---------------------------------------------------------------------------*/
FoamFile
{
    version     2.0;
    format      ascii;
    arch        "LSB;label=32;scalar=64";
    class       volScalarField;
    location    "20000";
    object      yPlus;
}
// * * * * * * * * * * * * * * * * * * * * * * * * * * * * * * * * * * * * * //

dimensions      [0 0 0 0 0 0 0];

internalField   uniform 0;

boundaryField
{
    bottomWall
    {
        type            calculated;
        value           nonuniform List<scalar> 
99
(
0.31469
0.33588
0.212118
0.215677
0.248589
0.186197
0.162832
0.13011
0.117155
0.102734
0.101946
0.104302
0.111186
0.115606
0.117491
0.114682
0.109677
0.103534
0.0965032
0.0907612
0.0871786
0.11053
0.140068
0.158424
0.173523
0.184848
0.194137
0.201545
0.207726
0.212831
0.217126
0.220707
0.223691
0.226129
0.228081
0.229573
0.230637
0.231296
0.231569
0.231477
0.231035
0.230263
0.229176
0.227792
0.226125
0.224194
0.222013
0.219598
0.216964
0.214126
0.211097
0.207894
0.204527
0.201011
0.197358
0.193579
0.189688
0.185693
0.181608
0.177441
0.173203
0.168902
0.16455
0.160153
0.155722
0.151273
0.14681
0.142358
0.137925
0.133544
0.129244
0.125076
0.121113
0.117474
0.114353
0.111932
0.110595
0.109342
0.108909
0.109382
0.108933
0.105721
0.0977083
0.0786508
0.0104604
0.100253
0.154677
0.200528
0.239956
0.280734
0.327358
0.391259
0.475227
0.563974
0.653086
0.67097
0.555875
0.388913
0.281054
)
;
    }
    defaultFaces
    {
        type            empty;
    }
    inlet
    {
        type            cyclic;
    }
    outlet
    {
        type            cyclic;
    }
    topWall
    {
        type            calculated;
        value           nonuniform List<scalar> 
99
(
0.79715
0.795565
0.795791
0.793721
0.792157
0.789305
0.785991
0.782138
0.777643
0.772692
0.767314
0.761552
0.755435
0.749117
0.742628
0.736056
0.729459
0.722853
0.716323
0.709897
0.70365
0.697568
0.691688
0.686052
0.680697
0.675593
0.670758
0.666195
0.661911
0.657934
0.654267
0.650909
0.64786
0.64512
0.642693
0.640556
0.638701
0.637147
0.635889
0.634902
0.634164
0.633715
0.633541
0.633645
0.63402
0.634621
0.63545
0.636504
0.637784
0.639282
0.640984
0.642893
0.645002
0.647288
0.649747
0.652366
0.655135
0.658046
0.661078
0.66425
0.667555
0.670963
0.674474
0.678032
0.681626
0.685278
0.688977
0.6927
0.696435
0.700194
0.703965
0.707744
0.711528
0.715308
0.719089
0.72287
0.726642
0.730415
0.73418
0.737954
0.741734
0.7455
0.749292
0.753062
0.756832
0.760597
0.76434
0.768039
0.771673
0.775237
0.778675
0.781953
0.785131
0.787964
0.790534
0.792809
0.794301
0.794887
0.796987
)
;
    }
}


// ************************************************************************* //
